
     Program PWSCF v.7.0 starts on 24Aug2023 at 20: 7:43 

     This program is part of the open-source Quantum ESPRESSO suite
     for quantum simulation of materials; please cite
         "P. Giannozzi et al., J. Phys.:Condens. Matter 21 395502 (2009);
         "P. Giannozzi et al., J. Phys.:Condens. Matter 29 465901 (2017);
         "P. Giannozzi et al., J. Chem. Phys. 152 154105 (2020);
          URL http://www.quantum-espresso.org", 
     in publications or presentations arising from this work. More details at
     http://www.quantum-espresso.org/quote

     Serial version
     6297 MiB available memory on the printing compute node when the environment starts

     Waiting for input...
     Reading input from standard input

     Current dimensions of program PWSCF are:
     Max number of different atomic species (ntypx) = 10
     Max number of k-points (npk) =  40000
     Max angular momentum in pseudopotentials (lmaxx) =  4

     G-vector sticks info
     --------------------
     sticks:   dense  smooth     PW     G-vecs:    dense   smooth      PW
     Sum         367     367    121                34489    34489    6017

     Using Slab Decomposition



     bravais-lattice index     =            4
     lattice parameter (alat)  =       4.7243  a.u.
     unit-cell volume          =     547.8965 (a.u.)^3
     number of atoms/cell      =            2
     number of atomic types    =            1
     number of electrons       =         8.00
     number of Kohn-Sham states=            8
     kinetic-energy cutoff     =      60.0000  Ry
     charge density cutoff     =     240.0000  Ry
     scf convergence threshold =      1.0E-09
     mixing beta               =       0.7000
     number of iterations used =            8  plain     mixing
     energy convergence thresh.=      1.0E-05
     force convergence thresh. =      1.0E-04
     press convergence thresh. =      5.0E-02
     Exchange-correlation= PBE
                           (   1   4   3   4   0   0   0)
     nstep                     =           50


     celldm(1)=   4.724315  celldm(2)=   0.000000  celldm(3)=   6.000000
     celldm(4)=   0.000000  celldm(5)=   0.000000  celldm(6)=   0.000000

     crystal axes: (cart. coord. in units of alat)
               a(1) = (   1.000000   0.000000   0.000000 )  
               a(2) = (  -0.500000   0.866025   0.000000 )  
               a(3) = (   0.000000   0.000000   6.000000 )  

     reciprocal axes: (cart. coord. in units 2 pi/alat)
               b(1) = (  1.000000  0.577350 -0.000000 )  
               b(2) = (  0.000000  1.154701  0.000000 )  
               b(3) = (  0.000000 -0.000000  0.166667 )  


     PseudoPot. # 1 for C  read from file:
     ../pseudo/C.pbe-n-rrkjus_psl.0.1.UPF
     MD5 check sum: 96a6a315177d77e6c95bf6fd3870f9e3
     Pseudo is Ultrasoft + core correction, Zval =  4.0
     Generated using &quot;atomic&quot; code by A. Dal Corso  v.6.3MaX
     Using radial grid of 1073 points,  4 beta functions with: 
                l(1) =   0
                l(2) =   0
                l(3) =   1
                l(4) =   1
     Q(r) pseudized with 0 coefficients 


     atomic species   valence    mass     pseudopotential
        C              4.00    12.01070     C ( 1.00)

     24 Sym. Ops., with inversion, found



   Cartesian axes

     site n.     atom                  positions (alat units)
         1           C   tau(   1) = (   0.0000000   0.5773503   3.0000000  )
         2           C   tau(   2) = (   0.5000000   0.2886751   3.0000000  )

     number of k points=    19  Marzari-Vanderbilt smearing, width (Ry)=  0.0200
                       cart. coord. in units 2pi/alat
        k(    1) = (   0.0000000   0.0000000   0.0000000), wk =   0.0138889
        k(    2) = (   0.0000000   0.0962250   0.0000000), wk =   0.0833333
        k(    3) = (   0.0000000   0.1924501   0.0000000), wk =   0.0833333
        k(    4) = (   0.0000000   0.2886751   0.0000000), wk =   0.0833333
        k(    5) = (   0.0000000   0.3849002   0.0000000), wk =   0.0833333
        k(    6) = (   0.0000000   0.4811252   0.0000000), wk =   0.0833333
        k(    7) = (   0.0000000  -0.5773503   0.0000000), wk =   0.0416667
        k(    8) = (   0.0833333   0.1443376   0.0000000), wk =   0.0833333
        k(    9) = (   0.0833333   0.2405626   0.0000000), wk =   0.1666667
        k(   10) = (   0.0833333   0.3367877   0.0000000), wk =   0.1666667
        k(   11) = (   0.0833333   0.4330127   0.0000000), wk =   0.1666667
        k(   12) = (   0.0833333   0.5292377   0.0000000), wk =   0.1666667
        k(   13) = (   0.1666667   0.2886751   0.0000000), wk =   0.0833333
        k(   14) = (   0.1666667   0.3849002   0.0000000), wk =   0.1666667
        k(   15) = (   0.1666667   0.4811252   0.0000000), wk =   0.1666667
        k(   16) = (   0.1666667   0.5773503   0.0000000), wk =   0.0833333
        k(   17) = (   0.2500000   0.4330127   0.0000000), wk =   0.0833333
        k(   18) = (   0.2500000   0.5292377   0.0000000), wk =   0.1666667
        k(   19) = (   0.3333333   0.5773503   0.0000000), wk =   0.0277778

     Dense  grid:    34489 G-vectors     FFT dimensions: (  24,  24, 144)

     Estimated max dynamical RAM per process >      58.61 MB

     Check: negative core charge=   -0.000003

     Initial potential from superposition of free atoms

     starting charge       7.9999, renormalised to       8.0000

     negative rho (up, down):  9.191E-05 0.000E+00
     Starting wfcs are    8 randomized atomic wfcs

     total cpu time spent up to now is        1.6 secs

     Self-consistent Calculation

     iteration #  1     ecut=    60.00 Ry     beta= 0.70
     Davidson diagonalization with overlap
     ethr =  1.00E-02,  avg # of iterations =  6.1

     Threshold (ethr) on eigenvalues was too large:
     Diagonalizing with lowered threshold

     Davidson diagonalization with overlap
     ethr =  6.29E-04,  avg # of iterations =  8.4

     negative rho (up, down):  2.057E-05 0.000E+00

     total cpu time spent up to now is        4.2 secs

     total energy              =     -23.88382691 Ry
     estimated scf accuracy    <       0.17023635 Ry

     iteration #  2     ecut=    60.00 Ry     beta= 0.70
     Davidson diagonalization with overlap
     ethr =  2.13E-03,  avg # of iterations =  1.9

     negative rho (up, down):  5.571E-05 0.000E+00

     total cpu time spent up to now is        5.0 secs

     total energy              =     -23.89228803 Ry
     estimated scf accuracy    <       0.00559140 Ry

     iteration #  3     ecut=    60.00 Ry     beta= 0.70
     Davidson diagonalization with overlap
     c_bands:  1 eigenvalues not converged
     c_bands:  2 eigenvalues not converged
     c_bands:  4 eigenvalues not converged
     c_bands:  4 eigenvalues not converged
     c_bands:  1 eigenvalues not converged
     c_bands:  2 eigenvalues not converged
     c_bands:  1 eigenvalues not converged
     c_bands:  1 eigenvalues not converged
     c_bands:  1 eigenvalues not converged
     c_bands:  3 eigenvalues not converged
     ethr =  6.99E-05,  avg # of iterations = 18.6

     negative rho (up, down):  5.330E-05 0.000E+00

     total cpu time spent up to now is        8.2 secs

     total energy              =     -23.91215858 Ry
     estimated scf accuracy    <       0.00696260 Ry

     iteration #  4     ecut=    60.00 Ry     beta= 0.70
     Davidson diagonalization with overlap
     ethr =  6.99E-05,  avg # of iterations =  3.3

     negative rho (up, down):  7.121E-05 0.000E+00

     total cpu time spent up to now is        9.0 secs

     total energy              =     -23.91251358 Ry
     estimated scf accuracy    <       0.01029415 Ry

     iteration #  5     ecut=    60.00 Ry     beta= 0.70
     Davidson diagonalization with overlap
     ethr =  6.99E-05,  avg # of iterations =  1.1

     negative rho (up, down):  9.639E-05 0.000E+00

     total cpu time spent up to now is        9.7 secs

     total energy              =     -23.90719588 Ry
     estimated scf accuracy    <       0.00986408 Ry

     iteration #  6     ecut=    60.00 Ry     beta= 0.70
     Davidson diagonalization with overlap
     ethr =  6.99E-05,  avg # of iterations =  2.0

     negative rho (up, down):  9.455E-05 0.000E+00

     total cpu time spent up to now is       10.5 secs

     total energy              =     -23.90783980 Ry
     estimated scf accuracy    <       0.00147393 Ry

     iteration #  7     ecut=    60.00 Ry     beta= 0.70
     Davidson diagonalization with overlap
     ethr =  1.84E-05,  avg # of iterations =  5.4

     negative rho (up, down):  9.480E-05 0.000E+00

     total cpu time spent up to now is       11.4 secs

     total energy              =     -23.90797429 Ry
     estimated scf accuracy    <       0.00148716 Ry

     iteration #  8     ecut=    60.00 Ry     beta= 0.70
     Davidson diagonalization with overlap
     ethr =  1.84E-05,  avg # of iterations =  1.6

     negative rho (up, down):  9.477E-05 0.000E+00

     total cpu time spent up to now is       12.2 secs

     total energy              =     -23.90812206 Ry
     estimated scf accuracy    <       0.00122958 Ry

     iteration #  9     ecut=    60.00 Ry     beta= 0.70
     Davidson diagonalization with overlap
     ethr =  1.54E-05,  avg # of iterations =  1.3

     negative rho (up, down):  9.202E-05 0.000E+00

     total cpu time spent up to now is       12.9 secs

     total energy              =     -23.90824184 Ry
     estimated scf accuracy    <       0.00129052 Ry

     iteration # 10     ecut=    60.00 Ry     beta= 0.70
     Davidson diagonalization with overlap
     ethr =  1.54E-05,  avg # of iterations =  1.3

     negative rho (up, down):  1.477E-04 0.000E+00

     total cpu time spent up to now is       13.6 secs

     total energy              =     -23.90765065 Ry
     estimated scf accuracy    <       0.00143198 Ry

     iteration # 11     ecut=    60.00 Ry     beta= 0.70
     Davidson diagonalization with overlap
     ethr =  1.54E-05,  avg # of iterations =  5.3

     negative rho (up, down):  1.158E-04 0.000E+00

     total cpu time spent up to now is       14.7 secs

     total energy              =     -23.90770350 Ry
     estimated scf accuracy    <       0.00191133 Ry

     iteration # 12     ecut=    60.00 Ry     beta= 0.70
     Davidson diagonalization with overlap
     ethr =  1.54E-05,  avg # of iterations =  1.5

     negative rho (up, down):  1.208E-04 0.000E+00

     total cpu time spent up to now is       15.5 secs

     total energy              =     -23.90786317 Ry
     estimated scf accuracy    <       0.00021444 Ry

     iteration # 13     ecut=    60.00 Ry     beta= 0.70
     Davidson diagonalization with overlap
     c_bands:  1 eigenvalues not converged
     ethr =  2.68E-06,  avg # of iterations =  9.6

     negative rho (up, down):  1.204E-04 0.000E+00

     total cpu time spent up to now is       16.7 secs

     total energy              =     -23.90794627 Ry
     estimated scf accuracy    <       0.00020956 Ry

     iteration # 14     ecut=    60.00 Ry     beta= 0.70
     Davidson diagonalization with overlap
     ethr =  2.62E-06,  avg # of iterations =  2.4

     negative rho (up, down):  1.238E-04 0.000E+00

     total cpu time spent up to now is       17.5 secs

     total energy              =     -23.90798112 Ry
     estimated scf accuracy    <       0.00020415 Ry

     iteration # 15     ecut=    60.00 Ry     beta= 0.70
     Davidson diagonalization with overlap
     ethr =  2.55E-06,  avg # of iterations =  1.2

     negative rho (up, down):  2.197E-04 0.000E+00

     total cpu time spent up to now is       18.2 secs

     total energy              =     -23.90935785 Ry
     estimated scf accuracy    <       0.00023610 Ry

     iteration # 16     ecut=    60.00 Ry     beta= 0.70
     Davidson diagonalization with overlap
     ethr =  2.55E-06,  avg # of iterations =  9.1

     negative rho (up, down):  1.095E-04 0.000E+00

     total cpu time spent up to now is       19.9 secs

     total energy              =     -23.90740310 Ry
     estimated scf accuracy    <       0.00379112 Ry

     iteration # 17     ecut=    60.00 Ry     beta= 0.70
     Davidson diagonalization with overlap
     ethr =  2.55E-06,  avg # of iterations =  7.6

     negative rho (up, down):  7.608E-05 0.000E+00

     total cpu time spent up to now is       21.5 secs

     total energy              =     -23.90870966 Ry
     estimated scf accuracy    <       0.00002501 Ry

     iteration # 18     ecut=    60.00 Ry     beta= 0.70
     Davidson diagonalization with overlap
     c_bands:  1 eigenvalues not converged
     c_bands:  1 eigenvalues not converged
     c_bands:  2 eigenvalues not converged
     c_bands:  4 eigenvalues not converged
     ethr =  3.13E-07,  avg # of iterations = 14.7

     negative rho (up, down):  8.441E-05 0.000E+00

     total cpu time spent up to now is       24.8 secs

     total energy              =     -23.90896374 Ry
     estimated scf accuracy    <       0.00361124 Ry

     iteration # 19     ecut=    60.00 Ry     beta= 0.70
     Davidson diagonalization with overlap
     c_bands:  1 eigenvalues not converged
     ethr =  3.13E-07,  avg # of iterations =  5.1

     negative rho (up, down):  9.833E-05 0.000E+00

     total cpu time spent up to now is       25.8 secs

     total energy              =     -23.90758840 Ry
     estimated scf accuracy    <       0.00264248 Ry

     iteration # 20     ecut=    60.00 Ry     beta= 0.70
     Davidson diagonalization with overlap
     c_bands:  1 eigenvalues not converged
     ethr =  3.13E-07,  avg # of iterations = 10.2

     negative rho (up, down):  1.101E-04 0.000E+00

     total cpu time spent up to now is       27.9 secs

     total energy              =     -23.90788851 Ry
     estimated scf accuracy    <       0.00010847 Ry

     iteration # 21     ecut=    60.00 Ry     beta= 0.70
     Davidson diagonalization with overlap
     ethr =  3.13E-07,  avg # of iterations =  3.5

     negative rho (up, down):  1.158E-04 0.000E+00

     total cpu time spent up to now is       28.8 secs

     total energy              =     -23.90788785 Ry
     estimated scf accuracy    <       0.00001371 Ry

     iteration # 22     ecut=    60.00 Ry     beta= 0.70
     Davidson diagonalization with overlap
     ethr =  1.71E-07,  avg # of iterations =  3.7

     negative rho (up, down):  1.198E-04 0.000E+00

     total cpu time spent up to now is       29.7 secs

     total energy              =     -23.90789324 Ry
     estimated scf accuracy    <       0.00000016 Ry

     iteration # 23     ecut=    60.00 Ry     beta= 0.70
     Davidson diagonalization with overlap
     ethr =  2.03E-09,  avg # of iterations =  6.8

     negative rho (up, down):  1.178E-04 0.000E+00

     total cpu time spent up to now is       31.1 secs

     total energy              =     -23.90789580 Ry
     estimated scf accuracy    <       0.00000066 Ry

     iteration # 24     ecut=    60.00 Ry     beta= 0.70
     Davidson diagonalization with overlap
     ethr =  2.03E-09,  avg # of iterations =  4.3

     negative rho (up, down):  1.183E-04 0.000E+00

     total cpu time spent up to now is       32.1 secs

     total energy              =     -23.90789441 Ry
     estimated scf accuracy    <       0.00000256 Ry

     iteration # 25     ecut=    60.00 Ry     beta= 0.70
     Davidson diagonalization with overlap
     ethr =  2.03E-09,  avg # of iterations =  4.8

     negative rho (up, down):  1.182E-04 0.000E+00

     total cpu time spent up to now is       33.3 secs

     total energy              =     -23.90789488 Ry
     estimated scf accuracy    <       0.00000062 Ry

     iteration # 26     ecut=    60.00 Ry     beta= 0.70
     Davidson diagonalization with overlap
     ethr =  2.03E-09,  avg # of iterations =  3.5

     negative rho (up, down):  1.183E-04 0.000E+00

     total cpu time spent up to now is       34.1 secs

     total energy              =     -23.90789494 Ry
     estimated scf accuracy    <          6.0E-09 Ry

     iteration # 27     ecut=    60.00 Ry     beta= 0.70
     Davidson diagonalization with overlap
     ethr =  7.54E-11,  avg # of iterations =  5.1

     negative rho (up, down):  1.182E-04 0.000E+00

     total cpu time spent up to now is       35.2 secs

     total energy              =     -23.90789498 Ry
     estimated scf accuracy    <       0.00000002 Ry

     iteration # 28     ecut=    60.00 Ry     beta= 0.70
     Davidson diagonalization with overlap
     ethr =  7.54E-11,  avg # of iterations =  1.1

     negative rho (up, down):  1.182E-04 0.000E+00

     total cpu time spent up to now is       35.9 secs

     total energy              =     -23.90789498 Ry
     estimated scf accuracy    <       0.00000001 Ry

     iteration # 29     ecut=    60.00 Ry     beta= 0.70
     Davidson diagonalization with overlap
     ethr =  7.54E-11,  avg # of iterations =  2.5

     negative rho (up, down):  1.182E-04 0.000E+00

     total cpu time spent up to now is       36.8 secs

     End of self-consistent calculation

          k = 0.0000 0.0000 0.0000 (  4287 PWs)   bands (ev):

   -21.0674  -9.2279  -4.9689  -4.9689   1.3803   2.1986   2.4579   4.4316

          k = 0.0000 0.0962 0.0000 (  4260 PWs)   bands (ev):

   -20.9077  -9.0385  -5.6077  -5.2920   1.5983   2.4179   2.6779   4.6482

          k = 0.0000 0.1925 0.0000 (  4270 PWs)   bands (ev):

   -20.4303  -8.4757  -7.2115  -6.0508   2.2523   3.0743   3.3381   5.2946

          k = 0.0000 0.2887 0.0000 (  4280 PWs)   bands (ev):

   -19.6411  -9.2612  -7.5584  -6.8958   3.3399   4.1499   4.4371   5.0961

          k = 0.0000 0.3849 0.0000 (  4278 PWs)   bands (ev):

   -18.5529 -11.4093  -7.6016  -6.3365   2.8601   4.8476   5.4417   5.7103

          k = 0.0000 0.4811 0.0000 (  4316 PWs)   bands (ev):

   -17.2005 -13.4494  -8.0573  -4.9700   0.8206   5.1797   6.8090   7.6511

          k = 0.0000-0.5774 0.0000 (  4320 PWs)   bands (ev):

   -16.0168 -14.8699  -8.2137  -4.1637  -0.2249   5.0945   9.0680   9.2075

          k = 0.0833 0.1443 0.0000 (  4283 PWs)   bands (ev):

   -20.5891  -8.6623  -6.6241  -5.9398   2.0345   2.8559   3.1182   5.0801

          k = 0.0833 0.2406 0.0000 (  4269 PWs)   bands (ev):

   -19.9558  -8.2980  -7.9210  -6.8990   2.9059   3.7284   3.9986   5.8631

          k = 0.0833 0.3368 0.0000 (  4299 PWs)   bands (ev):

   -19.0168 -10.3194  -7.7552  -6.8451   3.8223   4.2087   5.0524   5.3163

          k = 0.0833 0.4330 0.0000 (  4319 PWs)   bands (ev):

   -17.7924 -12.3850  -8.3693  -5.5176   1.7193   5.8741   6.0609   6.7743

          k = 0.0833 0.5292 0.0000 (  4307 PWs)   bands (ev):

   -16.3704 -14.2573  -8.6871  -4.2633   0.0318   5.8190   8.0812   8.8818

          k = 0.1667 0.2887 0.0000 (  4306 PWs)   bands (ev):

   -19.1726  -9.6119  -8.2058  -7.0173   3.9932   4.2467   4.8134   5.0992

          k = 0.1667 0.3849 0.0000 (  4303 PWs)   bands (ev):

   -18.0952 -11.2949  -9.2315  -5.8104   2.3842   5.5073   6.3124   6.6363

          k = 0.1667 0.4811 0.0000 (  4299 PWs)   bands (ev):

   -16.7622 -13.1439  -9.7971  -4.4395   0.5559   7.4100   7.7049   8.1566

          k = 0.1667 0.5774 0.0000 (  4296 PWs)   bands (ev):

   -15.6016 -14.4981  -9.9787  -3.5862  -0.4626   7.5852   9.5764   9.6154

          k = 0.2500 0.4330 0.0000 (  4304 PWs)   bands (ev):

   -16.9031 -12.3294 -10.6483  -4.5187   0.8303   7.2173   7.8841   8.3871

          k = 0.2500 0.5292 0.0000 (  4297 PWs)   bands (ev):

   -15.5337 -13.6969 -11.3397  -3.1886  -0.6291   8.8978   9.2561   9.8238

          k = 0.3333 0.5774 0.0000 (  4302 PWs)   bands (ev):

   -14.3622 -14.3622 -12.1605  -1.8835  -1.8835   8.6704  10.6794  10.6795

     the Fermi energy is    -1.8456 ev

!    total energy              =     -23.90789498 Ry
     estimated scf accuracy    <          1.9E-10 Ry
     smearing contrib. (-TS)   =      -0.00018232 Ry
     internal energy E=F+TS    =     -23.90771265 Ry

     The total energy is F=E-TS. E is the sum of the following terms:
     one-electron contribution =    -152.77758147 Ry
     hartree contribution      =      77.80870509 Ry
     xc contribution           =      -8.23887517 Ry
     ewald contribution        =      59.30003890 Ry

     convergence has been achieved in  29 iterations

     negative rho (up, down):  1.182E-04 0.000E+00

     Forces acting on atoms (cartesian axes, Ry/au):

     atom    1 type  1   force =    -0.00000000   -0.00000000    0.00000000
     atom    2 type  1   force =     0.00000000    0.00000000    0.00000000

     Total force =     0.000000     Total SCF correction =     0.000000


     Computing stress (Cartesian axis) and pressure


     negative rho (up, down):  1.182E-04 0.000E+00
          total   stress  (Ry/bohr**3)                   (kbar)     P=      -25.36
  -0.00025737   0.00000000   0.00000000          -37.86        0.00        0.00
   0.00000000  -0.00025737   0.00000000            0.00      -37.86        0.00
   0.00000000   0.00000000  -0.00000245            0.00        0.00       -0.36


     BFGS Geometry Optimization
     Energy error            =      0.0E+00 Ry
     Gradient error          =      1.4E-25 Ry/Bohr
     Cell gradient error     =      3.8E+01 kbar

     number of scf cycles    =   1
     number of bfgs steps    =   0

     enthalpy           new  =     -23.9078949776 Ry

     new trust radius        =       0.0301211293 bohr
     new conv_thr            =       0.0000000010 Ry

     new unit-cell volume =    540.86865 a.u.^3 (    80.14847 Ang^3 )
     density =      0.49768 g/cm^3

CELL_PARAMETERS (alat=  4.72431531)
   0.993565838   0.000000000   0.000000000
  -0.496782919   0.860453256   0.000000000
   0.000000000   0.000000000   6.000000000

ATOMIC_POSITIONS (crystal)
C             0.3333333330        0.6666666660        0.5000000000
C             0.6666666660        0.3333333330        0.5000000000



     Writing config-only to output data dir ../tmp/gr.save/
     NEW-OLD atomic charge density approx. for the potential

     Check: negative core charge=   -0.000003

     negative rho (up, down):  1.329E-04 0.000E+00
     extrapolated charge    7.89605, renormalised to    8.00000

     total cpu time spent up to now is       40.0 secs

     Self-consistent Calculation

     iteration #  1     ecut=    60.00 Ry     beta= 0.70
     Davidson diagonalization with overlap
     c_bands:  2 eigenvalues not converged
     c_bands:  3 eigenvalues not converged
     c_bands:  2 eigenvalues not converged
     c_bands:  1 eigenvalues not converged
     c_bands:  2 eigenvalues not converged
     c_bands:  2 eigenvalues not converged
     c_bands:  2 eigenvalues not converged
     c_bands:  1 eigenvalues not converged
     c_bands:  2 eigenvalues not converged
     c_bands:  1 eigenvalues not converged
     ethr =  1.00E-06,  avg # of iterations = 17.5

     negative rho (up, down):  1.363E-04 0.000E+00

     total cpu time spent up to now is       43.6 secs

     total energy              =     -23.90511231 Ry
     estimated scf accuracy    <       0.00224840 Ry

     iteration #  2     ecut=    60.00 Ry     beta= 0.70
     Davidson diagonalization with overlap
     ethr =  2.81E-05,  avg # of iterations = 14.1

     negative rho (up, down):  1.269E-04 0.000E+00

     total cpu time spent up to now is       45.6 secs

     total energy              =     -23.90932414 Ry
     estimated scf accuracy    <       0.00158354 Ry

     iteration #  3     ecut=    60.00 Ry     beta= 0.70
     Davidson diagonalization with overlap
     ethr =  1.98E-05,  avg # of iterations =  1.9

     negative rho (up, down):  1.262E-04 0.000E+00

     total cpu time spent up to now is       46.4 secs

     total energy              =     -23.90923450 Ry
     estimated scf accuracy    <       0.00055721 Ry

     iteration #  4     ecut=    60.00 Ry     beta= 0.70
     Davidson diagonalization with overlap
     ethr =  6.97E-06,  avg # of iterations =  3.1

     negative rho (up, down):  1.234E-04 0.000E+00

     total cpu time spent up to now is       47.2 secs

     total energy              =     -23.90929470 Ry
     estimated scf accuracy    <       0.00010961 Ry

     iteration #  5     ecut=    60.00 Ry     beta= 0.70
     Davidson diagonalization with overlap
     c_bands:  1 eigenvalues not converged
     ethr =  1.37E-06,  avg # of iterations =  5.9

     negative rho (up, down):  1.209E-04 0.000E+00

     total cpu time spent up to now is       48.3 secs

     total energy              =     -23.90929877 Ry
     estimated scf accuracy    <       0.00005414 Ry

     iteration #  6     ecut=    60.00 Ry     beta= 0.70
     Davidson diagonalization with overlap
     ethr =  6.77E-07,  avg # of iterations =  3.4

     negative rho (up, down):  1.205E-04 0.000E+00

     total cpu time spent up to now is       49.1 secs

     total energy              =     -23.90931097 Ry
     estimated scf accuracy    <       0.00000469 Ry

     iteration #  7     ecut=    60.00 Ry     beta= 0.70
     Davidson diagonalization with overlap
     ethr =  5.87E-08,  avg # of iterations =  4.9

     negative rho (up, down):  1.203E-04 0.000E+00

     total cpu time spent up to now is       50.3 secs

     total energy              =     -23.90932239 Ry
     estimated scf accuracy    <       0.00000369 Ry

     iteration #  8     ecut=    60.00 Ry     beta= 0.70
     Davidson diagonalization with overlap
     ethr =  4.61E-08,  avg # of iterations =  1.4

     negative rho (up, down):  1.208E-04 0.000E+00

     total cpu time spent up to now is       51.2 secs

     total energy              =     -23.90932052 Ry
     estimated scf accuracy    <       0.00000374 Ry

     iteration #  9     ecut=    60.00 Ry     beta= 0.70
     Davidson diagonalization with overlap
     ethr =  4.61E-08,  avg # of iterations =  1.3

     negative rho (up, down):  1.208E-04 0.000E+00

     total cpu time spent up to now is       51.9 secs

     total energy              =     -23.90932074 Ry
     estimated scf accuracy    <       0.00000061 Ry

     iteration # 10     ecut=    60.00 Ry     beta= 0.70
     Davidson diagonalization with overlap
     ethr =  7.69E-09,  avg # of iterations =  3.4

     negative rho (up, down):  1.206E-04 0.000E+00

     total cpu time spent up to now is       52.8 secs

     total energy              =     -23.90932082 Ry
     estimated scf accuracy    <       0.00000049 Ry

     iteration # 11     ecut=    60.00 Ry     beta= 0.70
     Davidson diagonalization with overlap
     ethr =  6.13E-09,  avg # of iterations =  2.7

     negative rho (up, down):  1.203E-04 0.000E+00

     total cpu time spent up to now is       53.6 secs

     total energy              =     -23.90932091 Ry
     estimated scf accuracy    <       0.00000017 Ry

     iteration # 12     ecut=    60.00 Ry     beta= 0.70
     Davidson diagonalization with overlap
     ethr =  2.15E-09,  avg # of iterations =  3.4

     negative rho (up, down):  1.199E-04 0.000E+00

     total cpu time spent up to now is       54.5 secs

     total energy              =     -23.90932097 Ry
     estimated scf accuracy    <       0.00000006 Ry

     iteration # 13     ecut=    60.00 Ry     beta= 0.70
     Davidson diagonalization with overlap
     ethr =  7.68E-10,  avg # of iterations =  2.5

     negative rho (up, down):  1.199E-04 0.000E+00

     total cpu time spent up to now is       55.3 secs

     total energy              =     -23.90932099 Ry
     estimated scf accuracy    <          6.5E-09 Ry

     iteration # 14     ecut=    60.00 Ry     beta= 0.70
     Davidson diagonalization with overlap
     ethr =  8.12E-11,  avg # of iterations =  4.5

     negative rho (up, down):  1.198E-04 0.000E+00

     total cpu time spent up to now is       56.3 secs

     total energy              =     -23.90932102 Ry
     estimated scf accuracy    <          6.8E-09 Ry

     iteration # 15     ecut=    60.00 Ry     beta= 0.70
     Davidson diagonalization with overlap
     ethr =  8.12E-11,  avg # of iterations =  4.5

     negative rho (up, down):  1.197E-04 0.000E+00

     total cpu time spent up to now is       57.4 secs

     total energy              =     -23.90932105 Ry
     estimated scf accuracy    <       0.00000008 Ry

     iteration # 16     ecut=    60.00 Ry     beta= 0.70
     Davidson diagonalization with overlap
     ethr =  8.12E-11,  avg # of iterations =  2.3

     negative rho (up, down):  1.197E-04 0.000E+00

     total cpu time spent up to now is       58.2 secs

     total energy              =     -23.90932108 Ry
     estimated scf accuracy    <       0.00000013 Ry

     iteration # 17     ecut=    60.00 Ry     beta= 0.70
     Davidson diagonalization with overlap
     ethr =  8.12E-11,  avg # of iterations =  3.5

     negative rho (up, down):  1.197E-04 0.000E+00

     total cpu time spent up to now is       59.1 secs

     total energy              =     -23.90932111 Ry
     estimated scf accuracy    <       0.00000021 Ry

     iteration # 18     ecut=    60.00 Ry     beta= 0.70
     Davidson diagonalization with overlap
     ethr =  8.12E-11,  avg # of iterations =  1.7

     negative rho (up, down):  1.198E-04 0.000E+00

     total cpu time spent up to now is       59.8 secs

     total energy              =     -23.90932103 Ry
     estimated scf accuracy    <       0.00000026 Ry

     iteration # 19     ecut=    60.00 Ry     beta= 0.70
     Davidson diagonalization with overlap
     ethr =  8.12E-11,  avg # of iterations =  3.7

     negative rho (up, down):  1.198E-04 0.000E+00

     total cpu time spent up to now is       60.7 secs

     total energy              =     -23.90932103 Ry
     estimated scf accuracy    <       0.00000010 Ry

     iteration # 20     ecut=    60.00 Ry     beta= 0.70
     Davidson diagonalization with overlap
     ethr =  8.12E-11,  avg # of iterations =  1.5

     negative rho (up, down):  1.197E-04 0.000E+00

     total cpu time spent up to now is       61.5 secs

     total energy              =     -23.90932104 Ry
     estimated scf accuracy    <       0.00000009 Ry

     iteration # 21     ecut=    60.00 Ry     beta= 0.70
     Davidson diagonalization with overlap
     ethr =  8.12E-11,  avg # of iterations =  1.0

     negative rho (up, down):  1.197E-04 0.000E+00

     total cpu time spent up to now is       62.2 secs

     total energy              =     -23.90932101 Ry
     estimated scf accuracy    <       0.00000011 Ry

     iteration # 22     ecut=    60.00 Ry     beta= 0.70
     Davidson diagonalization with overlap
     ethr =  8.12E-11,  avg # of iterations =  1.7

     negative rho (up, down):  1.198E-04 0.000E+00

     total cpu time spent up to now is       62.9 secs

     total energy              =     -23.90932100 Ry
     estimated scf accuracy    <       0.00000007 Ry

     iteration # 23     ecut=    60.00 Ry     beta= 0.70
     Davidson diagonalization with overlap
     ethr =  8.12E-11,  avg # of iterations =  3.9

     negative rho (up, down):  1.200E-04 0.000E+00

     total cpu time spent up to now is       63.8 secs

     total energy              =     -23.90932099 Ry
     estimated scf accuracy    <       0.00000003 Ry

     iteration # 24     ecut=    60.00 Ry     beta= 0.70
     Davidson diagonalization with overlap
     ethr =  8.12E-11,  avg # of iterations =  3.4

     negative rho (up, down):  1.200E-04 0.000E+00

     total cpu time spent up to now is       64.7 secs

     End of self-consistent calculation

          k = 0.0000 0.0000 0.0000 (  4287 PWs)   bands (ev):

   -21.1474  -9.2816  -4.8904  -4.8904   1.3933   2.2122   2.4676   4.4430

          k =-0.0000 0.0968 0.0000 (  4260 PWs)   bands (ev):

   -20.9858  -9.0892  -5.5335  -5.2202   1.6142   2.4344   2.6905   4.6624

          k =-0.0000 0.1937 0.0000 (  4270 PWs)   bands (ev):

   -20.5028  -8.5173  -7.1506  -5.9938   2.2766   3.0998   3.3594   5.3181

          k =-0.0000 0.2905 0.0000 (  4280 PWs)   bands (ev):

   -19.7043  -9.2205  -7.5849  -6.8541   3.3784   4.1924   4.4728   5.2917

          k =-0.0000 0.3874 0.0000 (  4278 PWs)   bands (ev):

   -18.6026 -11.3922  -7.5722  -6.3422   3.0101   4.9084   5.6853   5.7728

          k =-0.0000 0.4842 0.0000 (  4316 PWs)   bands (ev):

   -17.2308 -13.4587  -8.0355  -4.9505   0.9276   5.4369   6.8948   7.7405

          k = 0.0000-0.5811 0.0000 (  4320 PWs)   bands (ev):

   -16.0111 -14.9177  -8.1946  -4.1271  -0.1414   5.3546   9.1853   9.3233

          k = 0.0839 0.1453 0.0000 (  4283 PWs)   bands (ev):

   -20.6635  -8.7069  -6.5563  -5.8809   2.0560   2.8784   3.1365   5.1007

          k = 0.0839 0.2421 0.0000 (  4269 PWs)   bands (ev):

   -20.0228  -8.2447  -7.9536  -6.8571   2.9387   3.7628   4.0284   5.9469

          k = 0.0839 0.3390 0.0000 (  4299 PWs)   bands (ev):

   -19.0724 -10.2879  -7.7265  -6.8597   3.9943   4.2587   5.1071   5.3638

          k = 0.0839 0.4358 0.0000 (  4319 PWs)   bands (ev):

   -17.8320 -12.3783  -8.3498  -5.5088   1.8480   5.9819   6.2869   6.8514

          k = 0.0839 0.5327 0.0000 (  4307 PWs)   bands (ev):

   -16.3841 -14.2815  -8.6723  -4.2299   0.1240   6.0846   8.1835   8.9912

          k = 0.1677 0.2905 0.0000 (  4306 PWs)   bands (ev):

   -19.2301  -9.5648  -8.1881  -7.0348   4.0404   4.4335   4.8628   5.1433

          k = 0.1677 0.3874 0.0000 (  4303 PWs)   bands (ev):

   -18.1393 -11.2666  -9.2272  -5.8072   2.5326   5.5744   6.3833   6.7008

          k = 0.1677 0.4842 0.0000 (  4299 PWs)   bands (ev):

   -16.7872 -13.1428  -9.7972  -4.4112   0.6665   7.5123   7.9761   8.2564

          k = 0.1677 0.5811 0.0000 (  4296 PWs)   bands (ev):

   -15.5934 -14.5331  -9.9801  -3.5403  -0.3742   7.8682   9.7081   9.7445

          k = 0.2516 0.4358 0.0000 (  4304 PWs)   bands (ev):

   -16.9312 -12.3006 -10.6735  -4.4926   0.9513   7.3077   7.9800   8.4750

          k = 0.2516 0.5327 0.0000 (  4297 PWs)   bands (ev):

   -15.5381 -13.6917 -11.3722  -3.1375  -0.5355   9.0101   9.3832  10.1147

          k = 0.3355 0.5811 0.0000 (  4302 PWs)   bands (ev):

   -14.3465 -14.3465 -12.2266  -1.8095  -1.8095   8.7721  10.8951  10.8951

     the Fermi energy is    -1.7716 ev

!    total energy              =     -23.90932099 Ry
     estimated scf accuracy    <          9.5E-10 Ry
     smearing contrib. (-TS)   =      -0.00018232 Ry
     internal energy E=F+TS    =     -23.90913867 Ry

     The total energy is F=E-TS. E is the sum of the following terms:
     one-electron contribution =    -154.80988673 Ry
     hartree contribution      =      78.84338395 Ry
     xc contribution           =      -8.26729477 Ry
     ewald contribution        =      60.32465889 Ry

     convergence has been achieved in  24 iterations

     negative rho (up, down):  1.200E-04 0.000E+00

     Forces acting on atoms (cartesian axes, Ry/au):

     atom    1 type  1   force =    -0.00000000    0.00000000    0.00000000
     atom    2 type  1   force =     0.00000000    0.00000000    0.00000000

     Total force =     0.000000     Total SCF correction =     0.000000


     Computing stress (Cartesian axis) and pressure


     negative rho (up, down):  1.200E-04 0.000E+00
          total   stress  (Ry/bohr**3)                   (kbar)     P=      -14.60
  -0.00014727   0.00000000   0.00000000          -21.66        0.00        0.00
   0.00000000  -0.00014727  -0.00000000            0.00      -21.66       -0.00
  -0.00000000  -0.00000000  -0.00000314           -0.00       -0.00       -0.46

     Energy error            =      1.4E-03 Ry
     Gradient error          =      2.8E-25 Ry/Bohr
     Cell gradient error     =      2.2E+01 kbar

     number of scf cycles    =   2
     number of bfgs steps    =   1

     enthalpy           old  =     -23.9078949776 Ry
     enthalpy           new  =     -23.9093209909 Ry

     CASE: enthalpy          _new < enthalpy          _old

     new trust radius        =       0.0331332422 bohr
     new conv_thr            =            1.0E-11 Ry

     new unit-cell volume =    533.19044 a.u.^3 (    79.01067 Ang^3 )
     density =      0.50485 g/cm^3

CELL_PARAMETERS (alat=  4.72431531)
   0.986488260   0.000000000   0.000000000
  -0.493244130   0.854323893   0.000000000
   0.000000000   0.000000000   6.000000000

ATOMIC_POSITIONS (crystal)
C             0.3333333330        0.6666666660        0.5000000000
C             0.6666666660        0.3333333330        0.5000000000



     Writing config-only to output data dir ../tmp/gr.save/
     NEW-OLD atomic charge density approx. for the potential

     Check: negative core charge=   -0.000003

     negative rho (up, down):  1.361E-04 0.000E+00
     extrapolated charge    7.88480, renormalised to    8.00000

     total cpu time spent up to now is       67.9 secs

     Self-consistent Calculation

     iteration #  1     ecut=    60.00 Ry     beta= 0.70
     Davidson diagonalization with overlap
     c_bands:  1 eigenvalues not converged
     c_bands:  2 eigenvalues not converged
     c_bands:  2 eigenvalues not converged
     c_bands:  2 eigenvalues not converged
     c_bands:  5 eigenvalues not converged
     c_bands:  2 eigenvalues not converged
     c_bands:  2 eigenvalues not converged
     c_bands:  2 eigenvalues not converged
     c_bands:  2 eigenvalues not converged
     c_bands:  1 eigenvalues not converged
     ethr =  1.00E-06,  avg # of iterations = 17.6

     negative rho (up, down):  1.391E-04 0.000E+00

     total cpu time spent up to now is       71.6 secs

     total energy              =     -23.90477863 Ry
     estimated scf accuracy    <       0.00276283 Ry

     iteration #  2     ecut=    60.00 Ry     beta= 0.70
     Davidson diagonalization with overlap
     c_bands:  1 eigenvalues not converged
     c_bands:  1 eigenvalues not converged
     c_bands:  2 eigenvalues not converged
     ethr =  3.45E-05,  avg # of iterations = 15.2

     negative rho (up, down):  1.282E-04 0.000E+00

     total cpu time spent up to now is       73.7 secs

     total energy              =     -23.90995119 Ry
     estimated scf accuracy    <       0.00189596 Ry

     iteration #  3     ecut=    60.00 Ry     beta= 0.70
     Davidson diagonalization with overlap
     ethr =  2.37E-05,  avg # of iterations =  2.6

     negative rho (up, down):  1.276E-04 0.000E+00

     total cpu time spent up to now is       74.5 secs

     total energy              =     -23.90988432 Ry
     estimated scf accuracy    <       0.00067195 Ry

     iteration #  4     ecut=    60.00 Ry     beta= 0.70
     Davidson diagonalization with overlap
     ethr =  8.40E-06,  avg # of iterations =  3.9

     negative rho (up, down):  1.242E-04 0.000E+00

     total cpu time spent up to now is       75.4 secs

     total energy              =     -23.90992573 Ry
     estimated scf accuracy    <       0.00015981 Ry

     iteration #  5     ecut=    60.00 Ry     beta= 0.70
     Davidson diagonalization with overlap
     ethr =  2.00E-06,  avg # of iterations =  6.5

     negative rho (up, down):  1.222E-04 0.000E+00

     total cpu time spent up to now is       76.6 secs

     total energy              =     -23.90993389 Ry
     estimated scf accuracy    <       0.00006236 Ry

     iteration #  6     ecut=    60.00 Ry     beta= 0.70
     Davidson diagonalization with overlap
     ethr =  7.80E-07,  avg # of iterations =  3.8

     negative rho (up, down):  1.220E-04 0.000E+00

     total cpu time spent up to now is       77.6 secs

     total energy              =     -23.90994814 Ry
     estimated scf accuracy    <       0.00000676 Ry

     iteration #  7     ecut=    60.00 Ry     beta= 0.70
     Davidson diagonalization with overlap
     ethr =  8.45E-08,  avg # of iterations =  5.1

     negative rho (up, down):  1.223E-04 0.000E+00

     total cpu time spent up to now is       78.7 secs

     total energy              =     -23.90996353 Ry
     estimated scf accuracy    <       0.00000388 Ry

     iteration #  8     ecut=    60.00 Ry     beta= 0.70
     Davidson diagonalization with overlap
     ethr =  4.85E-08,  avg # of iterations =  2.2

     negative rho (up, down):  1.216E-04 0.000E+00

     total cpu time spent up to now is       79.5 secs

     total energy              =     -23.90995912 Ry
     estimated scf accuracy    <       0.00000819 Ry

     iteration #  9     ecut=    60.00 Ry     beta= 0.70
     Davidson diagonalization with overlap
     ethr =  4.85E-08,  avg # of iterations =  1.4

     negative rho (up, down):  1.215E-04 0.000E+00

     total cpu time spent up to now is       80.2 secs

     total energy              =     -23.90995955 Ry
     estimated scf accuracy    <       0.00000042 Ry

     iteration # 10     ecut=    60.00 Ry     beta= 0.70
     Davidson diagonalization with overlap
     ethr =  5.23E-09,  avg # of iterations =  4.2

     negative rho (up, down):  1.215E-04 0.000E+00

     total cpu time spent up to now is       81.3 secs

     total energy              =     -23.90996013 Ry
     estimated scf accuracy    <       0.00000010 Ry

     iteration # 11     ecut=    60.00 Ry     beta= 0.70
     Davidson diagonalization with overlap
     ethr =  1.27E-09,  avg # of iterations =  1.7

     negative rho (up, down):  1.214E-04 0.000E+00

     total cpu time spent up to now is       82.0 secs

     total energy              =     -23.90996014 Ry
     estimated scf accuracy    <       0.00000009 Ry

     iteration # 12     ecut=    60.00 Ry     beta= 0.70
     Davidson diagonalization with overlap
     ethr =  1.13E-09,  avg # of iterations =  1.1

     negative rho (up, down):  1.211E-04 0.000E+00

     total cpu time spent up to now is       82.7 secs

     total energy              =     -23.90996013 Ry
     estimated scf accuracy    <       0.00000008 Ry

     iteration # 13     ecut=    60.00 Ry     beta= 0.70
     Davidson diagonalization with overlap
     ethr =  1.04E-09,  avg # of iterations =  1.1

     negative rho (up, down):  1.211E-04 0.000E+00

     total cpu time spent up to now is       83.4 secs

     total energy              =     -23.90996014 Ry
     estimated scf accuracy    <       0.00000001 Ry

     iteration # 14     ecut=    60.00 Ry     beta= 0.70
     Davidson diagonalization with overlap
     ethr =  1.50E-10,  avg # of iterations =  4.0

     negative rho (up, down):  1.211E-04 0.000E+00

     total cpu time spent up to now is       84.4 secs

     total energy              =     -23.90996015 Ry
     estimated scf accuracy    <       0.00000004 Ry

     iteration # 15     ecut=    60.00 Ry     beta= 0.70
     Davidson diagonalization with overlap
     ethr =  1.50E-10,  avg # of iterations =  1.3

     negative rho (up, down):  1.211E-04 0.000E+00

     total cpu time spent up to now is       85.2 secs

     total energy              =     -23.90996016 Ry
     estimated scf accuracy    <       0.00000004 Ry

     iteration # 16     ecut=    60.00 Ry     beta= 0.70
     Davidson diagonalization with overlap
     ethr =  1.50E-10,  avg # of iterations =  1.0

     negative rho (up, down):  1.215E-04 0.000E+00

     total cpu time spent up to now is       85.9 secs

     total energy              =     -23.90996037 Ry
     estimated scf accuracy    <       0.00000005 Ry

     iteration # 17     ecut=    60.00 Ry     beta= 0.70
     Davidson diagonalization with overlap
     ethr =  1.50E-10,  avg # of iterations =  4.8

     negative rho (up, down):  1.213E-04 0.000E+00

     total cpu time spent up to now is       87.0 secs

     total energy              =     -23.90996032 Ry
     estimated scf accuracy    <       0.00000065 Ry

     iteration # 18     ecut=    60.00 Ry     beta= 0.70
     Davidson diagonalization with overlap
     ethr =  1.50E-10,  avg # of iterations =  1.5

     negative rho (up, down):  1.209E-04 0.000E+00

     total cpu time spent up to now is       87.8 secs

     total energy              =     -23.90996003 Ry
     estimated scf accuracy    <       0.00000046 Ry

     iteration # 19     ecut=    60.00 Ry     beta= 0.70
     Davidson diagonalization with overlap
     ethr =  1.50E-10,  avg # of iterations =  5.2

     negative rho (up, down):  1.210E-04 0.000E+00

     total cpu time spent up to now is       88.9 secs

     total energy              =     -23.90996014 Ry
     estimated scf accuracy    <          3.4E-09 Ry

     iteration # 20     ecut=    60.00 Ry     beta= 0.70
     Davidson diagonalization with overlap
     ethr =  4.24E-11,  avg # of iterations =  1.5

     negative rho (up, down):  1.210E-04 0.000E+00

     total cpu time spent up to now is       89.7 secs

     total energy              =     -23.90996014 Ry
     estimated scf accuracy    <          1.8E-10 Ry

     iteration # 21     ecut=    60.00 Ry     beta= 0.70
     Davidson diagonalization with overlap
     ethr =  2.24E-12,  avg # of iterations =  4.9

     negative rho (up, down):  1.210E-04 0.000E+00

     total cpu time spent up to now is       90.8 secs

     total energy              =     -23.90996014 Ry
     estimated scf accuracy    <          2.7E-10 Ry

     iteration # 22     ecut=    60.00 Ry     beta= 0.70
     Davidson diagonalization with overlap
     ethr =  2.24E-12,  avg # of iterations =  1.1

     negative rho (up, down):  1.210E-04 0.000E+00

     total cpu time spent up to now is       91.5 secs

     total energy              =     -23.90996014 Ry
     estimated scf accuracy    <          5.9E-11 Ry

     iteration # 23     ecut=    60.00 Ry     beta= 0.70
     Davidson diagonalization with overlap
     ethr =  7.43E-13,  avg # of iterations =  4.4

     negative rho (up, down):  1.210E-04 0.000E+00

     total cpu time spent up to now is       92.6 secs

     total energy              =     -23.90996014 Ry
     estimated scf accuracy    <          5.0E-10 Ry

     iteration # 24     ecut=    60.00 Ry     beta= 0.70
     Davidson diagonalization with overlap
     ethr =  7.43E-13,  avg # of iterations =  1.1

     negative rho (up, down):  1.210E-04 0.000E+00

     total cpu time spent up to now is       93.3 secs

     total energy              =     -23.90996014 Ry
     estimated scf accuracy    <          3.8E-10 Ry

     iteration # 25     ecut=    60.00 Ry     beta= 0.70
     Davidson diagonalization with overlap
     ethr =  7.43E-13,  avg # of iterations =  2.3

     negative rho (up, down):  1.210E-04 0.000E+00

     total cpu time spent up to now is       94.2 secs

     total energy              =     -23.90996014 Ry
     estimated scf accuracy    <          7.9E-11 Ry

     iteration # 26     ecut=    60.00 Ry     beta= 0.70
     Davidson diagonalization with overlap
     ethr =  7.43E-13,  avg # of iterations =  3.9

     negative rho (up, down):  1.210E-04 0.000E+00

     total cpu time spent up to now is       95.1 secs

     End of self-consistent calculation

          k = 0.0000 0.0000 0.0000 (  4287 PWs)   bands (ev):

   -21.2357  -9.3417  -4.8007  -4.8007   1.4081   2.2276   2.4799   4.4566

          k =-0.0000 0.0975 0.0000 (  4260 PWs)   bands (ev):

   -21.0721  -9.1459  -5.4489  -5.1381   1.6321   2.4531   2.7060   4.6795

          k =-0.0000 0.1951 0.0000 (  4270 PWs)   bands (ev):

   -20.5829  -8.5638  -7.0812  -5.9283   2.3040   3.1285   3.3843   5.3452

          k =-0.0000 0.2926 0.0000 (  4280 PWs)   bands (ev):

   -19.7740  -9.1738  -7.6146  -6.8060   3.4217   4.2394   4.5139   5.5109

          k =-0.0000 0.3902 0.0000 (  4278 PWs)   bands (ev):

   -18.6573 -11.3719  -7.5378  -6.3485   3.1782   4.9756   5.8432   5.9434

          k =-0.0000 0.4877 0.0000 (  4316 PWs)   bands (ev):

   -17.2641 -13.4677  -8.0098  -4.9284   1.0474   5.7250   6.9916   7.8408

          k = 0.0000-0.5853 0.0000 (  4320 PWs)   bands (ev):

   -16.0030 -14.9709  -8.1718  -4.0857  -0.0480   5.6467   9.3171   9.4531

          k = 0.0845 0.1463 0.0000 (  4283 PWs)   bands (ev):

   -20.7457  -8.7569  -6.4792  -5.8135   2.0802   2.9037   3.1584   5.1243

          k = 0.0845 0.2439 0.0000 (  4269 PWs)   bands (ev):

   -20.0966  -8.1839  -7.9900  -6.8087   2.9757   3.8015   4.0631   5.9974

          k = 0.0845 0.3414 0.0000 (  4299 PWs)   bands (ev):

   -19.1337 -10.2517  -7.6930  -6.8759   4.1867   4.3148   5.1694   5.4179

          k = 0.0845 0.4389 0.0000 (  4319 PWs)   bands (ev):

   -17.8757 -12.3698  -8.3264  -5.4987   1.9923   6.0754   6.5667   6.9381

          k = 0.0845 0.5365 0.0000 (  4307 PWs)   bands (ev):

   -16.3989 -14.3073  -8.6542  -4.1920   0.2273   6.3824   8.2985   9.1137

          k = 0.1689 0.2926 0.0000 (  4306 PWs)   bands (ev):

   -19.2936  -9.5109  -8.1669  -7.0544   4.0933   4.6434   4.9182   5.1941

          k = 0.1689 0.3902 0.0000 (  4303 PWs)   bands (ev):

   -18.1878 -11.2341  -9.2207  -5.8035   2.6993   5.6498   6.4628   6.7744

          k = 0.1689 0.4877 0.0000 (  4299 PWs)   bands (ev):

   -16.8144 -13.1407  -9.7954  -4.3793   0.7907   7.6212   8.2833   8.3683

          k = 0.1689 0.5853 0.0000 (  4296 PWs)   bands (ev):

   -15.5825 -14.5725  -9.9798  -3.4885  -0.2752   8.1850   9.8566   9.8890

          k = 0.2534 0.4389 0.0000 (  4304 PWs)   bands (ev):

   -16.9619 -12.2672 -10.7003  -4.4631   1.0874   7.4091   8.0876   8.5749

          k = 0.2534 0.5365 0.0000 (  4297 PWs)   bands (ev):

   -15.5423 -13.6854 -11.4064  -3.0800  -0.4302   9.1362   9.5232  10.4384

          k = 0.3379 0.5853 0.0000 (  4302 PWs)   bands (ev):

   -14.3273 -14.3273 -12.3000  -1.7263  -1.7263   8.8864  11.1286  11.1286

     the Fermi energy is    -1.6884 ev

!    total energy              =     -23.90996014 Ry
     estimated scf accuracy    <          3.0E-13 Ry
     smearing contrib. (-TS)   =      -0.00018232 Ry
     internal energy E=F+TS    =     -23.90977781 Ry

     The total energy is F=E-TS. E is the sum of the following terms:
     one-electron contribution =    -157.09436566 Ry
     hartree contribution      =      80.00686541 Ry
     xc contribution           =      -8.29917674 Ry
     ewald contribution        =      61.47689918 Ry

     convergence has been achieved in  26 iterations

     negative rho (up, down):  1.210E-04 0.000E+00

     Forces acting on atoms (cartesian axes, Ry/au):

     atom    1 type  1   force =    -0.00000000   -0.00000000    0.00000000
     atom    2 type  1   force =     0.00000000    0.00000000    0.00000000

     Total force =     0.000000     Total SCF correction =     0.000000


     Computing stress (Cartesian axis) and pressure


     negative rho (up, down):  1.210E-04 0.000E+00
          total   stress  (Ry/bohr**3)                   (kbar)     P=       -1.85
  -0.00001761  -0.00000000   0.00000000           -2.59       -0.00        0.00
  -0.00000000  -0.00001761   0.00000000           -0.00       -2.59        0.00
   0.00000000   0.00000000  -0.00000256            0.00        0.00       -0.38

     Energy error            =      6.4E-04 Ry
     Gradient error          =      2.8E-25 Ry/Bohr
     Cell gradient error     =      2.6E+00 kbar

     number of scf cycles    =   3
     number of bfgs steps    =   2

     enthalpy           old  =     -23.9093209909 Ry
     enthalpy           new  =     -23.9099601365 Ry

     CASE: enthalpy          _new < enthalpy          _old

     new trust radius        =       0.0044641592 bohr
     new conv_thr            =            1.0E-11 Ry

     new unit-cell volume =    532.16012 a.u.^3 (    78.85799 Ang^3 )
     density =      0.50583 g/cm^3

CELL_PARAMETERS (alat=  4.72431531)
   0.985534672   0.000000000   0.000000000
  -0.492767336   0.853498063   0.000000000
   0.000000000   0.000000000   6.000000000

ATOMIC_POSITIONS (crystal)
C             0.3333333330        0.6666666660        0.5000000000
C             0.6666666660        0.3333333330        0.5000000000



     Writing config-only to output data dir ../tmp/gr.save/
     NEW-OLD atomic charge density approx. for the potential

     Check: negative core charge=   -0.000003

     negative rho (up, down):  1.231E-04 0.000E+00
     extrapolated charge    7.98451, renormalised to    8.00000

     total cpu time spent up to now is       98.3 secs

     Self-consistent Calculation

     iteration #  1     ecut=    60.00 Ry     beta= 0.70
     Davidson diagonalization with overlap
     c_bands:  1 eigenvalues not converged
     ethr =  1.00E-06,  avg # of iterations =  8.5

     negative rho (up, down):  1.238E-04 0.000E+00

     total cpu time spent up to now is       99.8 secs

     total energy              =     -23.90987939 Ry
     estimated scf accuracy    <       0.00004439 Ry

     iteration #  2     ecut=    60.00 Ry     beta= 0.70
     Davidson diagonalization with overlap
     c_bands:  1 eigenvalues not converged
     c_bands:  1 eigenvalues not converged
     ethr =  5.55E-07,  avg # of iterations = 10.9

     negative rho (up, down):  1.225E-04 0.000E+00

     total cpu time spent up to now is      101.5 secs

     total energy              =     -23.90996908 Ry
     estimated scf accuracy    <       0.00003023 Ry

     iteration #  3     ecut=    60.00 Ry     beta= 0.70
     Davidson diagonalization with overlap
     ethr =  3.78E-07,  avg # of iterations =  1.8

     negative rho (up, down):  1.222E-04 0.000E+00

     total cpu time spent up to now is      102.3 secs

     total energy              =     -23.90996704 Ry
     estimated scf accuracy    <       0.00001039 Ry

     iteration #  4     ecut=    60.00 Ry     beta= 0.70
     Davidson diagonalization with overlap
     ethr =  1.30E-07,  avg # of iterations =  2.3

     negative rho (up, down):  1.218E-04 0.000E+00

     total cpu time spent up to now is      103.1 secs

     total energy              =     -23.90996814 Ry
     estimated scf accuracy    <       0.00000182 Ry

     iteration #  5     ecut=    60.00 Ry     beta= 0.70
     Davidson diagonalization with overlap
     ethr =  2.27E-08,  avg # of iterations =  4.1

     negative rho (up, down):  1.215E-04 0.000E+00

     total cpu time spent up to now is      104.0 secs

     total energy              =     -23.90996884 Ry
     estimated scf accuracy    <       0.00000075 Ry

     iteration #  6     ecut=    60.00 Ry     beta= 0.70
     Davidson diagonalization with overlap
     ethr =  9.43E-09,  avg # of iterations =  2.8

     negative rho (up, down):  1.211E-04 0.000E+00

     total cpu time spent up to now is      104.9 secs

     total energy              =     -23.90996868 Ry
     estimated scf accuracy    <       0.00000048 Ry

     iteration #  7     ecut=    60.00 Ry     beta= 0.70
     Davidson diagonalization with overlap
     ethr =  6.02E-09,  avg # of iterations =  3.2

     negative rho (up, down):  1.214E-04 0.000E+00

     total cpu time spent up to now is      105.8 secs

     total energy              =     -23.90996890 Ry
     estimated scf accuracy    <       0.00000002 Ry

     iteration #  8     ecut=    60.00 Ry     beta= 0.70
     Davidson diagonalization with overlap
     ethr =  2.26E-10,  avg # of iterations =  5.3

     negative rho (up, down):  1.211E-04 0.000E+00

     total cpu time spent up to now is      106.9 secs

     total energy              =     -23.90996901 Ry
     estimated scf accuracy    <       0.00000013 Ry

     iteration #  9     ecut=    60.00 Ry     beta= 0.70
     Davidson diagonalization with overlap
     ethr =  2.26E-10,  avg # of iterations =  1.1

     negative rho (up, down):  1.213E-04 0.000E+00

     total cpu time spent up to now is      107.6 secs

     total energy              =     -23.90996893 Ry
     estimated scf accuracy    <       0.00000014 Ry

     iteration # 10     ecut=    60.00 Ry     beta= 0.70
     Davidson diagonalization with overlap
     ethr =  2.26E-10,  avg # of iterations =  4.3

     negative rho (up, down):  1.211E-04 0.000E+00

     total cpu time spent up to now is      108.6 secs

     total energy              =     -23.90996894 Ry
     estimated scf accuracy    <       0.00000001 Ry

     iteration # 11     ecut=    60.00 Ry     beta= 0.70
     Davidson diagonalization with overlap
     ethr =  1.73E-10,  avg # of iterations =  1.3

     negative rho (up, down):  1.211E-04 0.000E+00

     total cpu time spent up to now is      109.3 secs

     total energy              =     -23.90996894 Ry
     estimated scf accuracy    <          4.4E-09 Ry

     iteration # 12     ecut=    60.00 Ry     beta= 0.70
     Davidson diagonalization with overlap
     ethr =  5.49E-11,  avg # of iterations =  3.5

     negative rho (up, down):  1.211E-04 0.000E+00

     total cpu time spent up to now is      110.2 secs

     total energy              =     -23.90996894 Ry
     estimated scf accuracy    <          2.8E-09 Ry

     iteration # 13     ecut=    60.00 Ry     beta= 0.70
     Davidson diagonalization with overlap
     ethr =  3.52E-11,  avg # of iterations =  1.6

     negative rho (up, down):  1.211E-04 0.000E+00

     total cpu time spent up to now is      110.9 secs

     total energy              =     -23.90996894 Ry
     estimated scf accuracy    <          3.0E-09 Ry

     iteration # 14     ecut=    60.00 Ry     beta= 0.70
     Davidson diagonalization with overlap
     ethr =  3.52E-11,  avg # of iterations =  2.2

     negative rho (up, down):  1.210E-04 0.000E+00

     total cpu time spent up to now is      111.7 secs

     total energy              =     -23.90996894 Ry
     estimated scf accuracy    <          5.5E-10 Ry

     iteration # 15     ecut=    60.00 Ry     beta= 0.70
     Davidson diagonalization with overlap
     ethr =  6.84E-12,  avg # of iterations =  4.1

     negative rho (up, down):  1.210E-04 0.000E+00

     total cpu time spent up to now is      112.7 secs

     total energy              =     -23.90996894 Ry
     estimated scf accuracy    <          2.9E-10 Ry

     iteration # 16     ecut=    60.00 Ry     beta= 0.70
     Davidson diagonalization with overlap
     ethr =  3.61E-12,  avg # of iterations =  1.5

     negative rho (up, down):  1.211E-04 0.000E+00

     total cpu time spent up to now is      113.5 secs

     total energy              =     -23.90996894 Ry
     estimated scf accuracy    <          1.0E-10 Ry

     iteration # 17     ecut=    60.00 Ry     beta= 0.70
     Davidson diagonalization with overlap
     ethr =  1.31E-12,  avg # of iterations =  2.4

     negative rho (up, down):  1.211E-04 0.000E+00

     total cpu time spent up to now is      114.7 secs

     total energy              =     -23.90996894 Ry
     estimated scf accuracy    <          2.4E-11 Ry

     iteration # 18     ecut=    60.00 Ry     beta= 0.70
     Davidson diagonalization with overlap
     ethr =  3.05E-13,  avg # of iterations =  3.4

     negative rho (up, down):  1.211E-04 0.000E+00

     total cpu time spent up to now is      115.6 secs

     total energy              =     -23.90996894 Ry
     estimated scf accuracy    <          2.9E-11 Ry

     iteration # 19     ecut=    60.00 Ry     beta= 0.70
     Davidson diagonalization with overlap
     ethr =  3.05E-13,  avg # of iterations =  1.0

     negative rho (up, down):  1.211E-04 0.000E+00

     total cpu time spent up to now is      116.3 secs

     total energy              =     -23.90996894 Ry
     estimated scf accuracy    <          3.2E-11 Ry

     iteration # 20     ecut=    60.00 Ry     beta= 0.70
     Davidson diagonalization with overlap
     ethr =  3.05E-13,  avg # of iterations =  1.3

     negative rho (up, down):  1.211E-04 0.000E+00

     total cpu time spent up to now is      117.1 secs

     End of self-consistent calculation

          k = 0.0000 0.0000 0.0000 (  4287 PWs)   bands (ev):

   -21.2476  -9.3499  -4.7884  -4.7884   1.4102   2.2297   2.4817   4.4585

          k =-0.0000 0.0976 0.0000 (  4260 PWs)   bands (ev):

   -21.0837  -9.1536  -5.4372  -5.1267   1.6346   2.4557   2.7082   4.6818

          k =-0.0000 0.1953 0.0000 (  4270 PWs)   bands (ev):

   -20.5937  -8.5701  -7.0716  -5.9193   2.3078   3.1324   3.3878   5.3488

          k =-0.0000 0.2929 0.0000 (  4280 PWs)   bands (ev):

   -19.7834  -9.1673  -7.6186  -6.7993   3.4277   4.2459   4.5196   5.5407

          k =-0.0000 0.3905 0.0000 (  4278 PWs)   bands (ev):

   -18.6647 -11.3690  -7.5330  -6.3493   3.2011   4.9847   5.8528   5.9725

          k =-0.0000 0.4882 0.0000 (  4316 PWs)   bands (ev):

   -17.2685 -13.4688  -8.0061  -4.9254   1.0637   5.7643   7.0049   7.8546

          k = 0.0000-0.5858 0.0000 (  4320 PWs)   bands (ev):

   -16.0017 -14.9781  -8.1685  -4.0800  -0.0353   5.6866   9.3351   9.4708

          k = 0.0846 0.1465 0.0000 (  4283 PWs)   bands (ev):

   -20.7567  -8.7636  -6.4685  -5.8041   2.0836   2.9072   3.1614   5.1275

          k = 0.0846 0.2441 0.0000 (  4269 PWs)   bands (ev):

   -20.1066  -8.1755  -7.9949  -6.8020   2.9808   3.8069   4.0679   6.0071

          k = 0.0846 0.3417 0.0000 (  4299 PWs)   bands (ev):

   -19.1419 -10.2466  -7.6882  -6.8781   4.2129   4.3225   5.1780   5.4254

          k = 0.0846 0.4394 0.0000 (  4319 PWs)   bands (ev):

   -17.8815 -12.3685  -8.3231  -5.4973   2.0119   6.0875   6.6054   6.9500

          k = 0.0846 0.5370 0.0000 (  4307 PWs)   bands (ev):

   -16.4008 -14.3107  -8.6516  -4.1868   0.2413   6.4231   8.3142   9.1305

          k = 0.1691 0.2929 0.0000 (  4306 PWs)   bands (ev):

   -19.3021  -9.5034  -8.1639  -7.0570   4.1006   4.6721   4.9259   5.2012

          k = 0.1691 0.3905 0.0000 (  4303 PWs)   bands (ev):

   -18.1943 -11.2295  -9.2196  -5.8029   2.7220   5.6601   6.4737   6.7845

          k = 0.1691 0.4882 0.0000 (  4299 PWs)   bands (ev):

   -16.8181 -13.1403  -9.7949  -4.3749   0.8077   7.6359   8.3251   8.3837

          k = 0.1691 0.5858 0.0000 (  4296 PWs)   bands (ev):

   -15.5809 -14.5778  -9.9796  -3.4813  -0.2617   8.2281   9.8769   9.9088

          k = 0.2537 0.4394 0.0000 (  4304 PWs)   bands (ev):

   -16.9659 -12.2625 -10.7038  -4.4591   1.1060   7.4230   8.1023   8.5886

          k = 0.2537 0.5370 0.0000 (  4297 PWs)   bands (ev):

   -15.5428 -13.6845 -11.4108  -3.0721  -0.4158   9.1535   9.5422  10.4824

          k = 0.3382 0.5858 0.0000 (  4302 PWs)   bands (ev):

   -14.3246 -14.3246 -12.3100  -1.7149  -1.7149   8.9020  11.1598  11.1598

     the Fermi energy is    -1.6770 ev

!    total energy              =     -23.90996894 Ry
     estimated scf accuracy    <          8.5E-12 Ry
     smearing contrib. (-TS)   =      -0.00018232 Ry
     internal energy E=F+TS    =     -23.90978662 Ry

     The total energy is F=E-TS. E is the sum of the following terms:
     one-electron contribution =    -157.40609301 Ry
     hartree contribution      =      80.16561775 Ry
     xc contribution           =      -8.30351174 Ry
     ewald contribution        =      61.63420038 Ry

     convergence has been achieved in  20 iterations

     negative rho (up, down):  1.211E-04 0.000E+00

     Forces acting on atoms (cartesian axes, Ry/au):

     atom    1 type  1   force =     0.00000000   -0.00000000    0.00000000
     atom    2 type  1   force =    -0.00000000    0.00000000    0.00000000

     Total force =     0.000000     Total SCF correction =     0.000000


     Computing stress (Cartesian axis) and pressure


     negative rho (up, down):  1.211E-04 0.000E+00
          total   stress  (Ry/bohr**3)                   (kbar)     P=       -0.07
   0.00000054   0.00000000  -0.00000000            0.08        0.00       -0.00
   0.00000000   0.00000054   0.00000000            0.00        0.08        0.00
  -0.00000000   0.00000000  -0.00000258           -0.00        0.00       -0.38

     Energy error            =      8.8E-06 Ry
     Gradient error          =      2.8E-25 Ry/Bohr
     Cell gradient error     =      8.0E-02 kbar

     number of scf cycles    =   4
     number of bfgs steps    =   3

     enthalpy           old  =     -23.9099601365 Ry
     enthalpy           new  =     -23.9099689439 Ry

     CASE: enthalpy          _new < enthalpy          _old

     new trust radius        =       0.0001334200 bohr
     new conv_thr            =            1.0E-11 Ry

     new unit-cell volume =    532.19090 a.u.^3 (    78.86255 Ang^3 )
     density =      0.50580 g/cm^3

CELL_PARAMETERS (alat=  4.72431531)
   0.985563172   0.000000000   0.000000000
  -0.492781586   0.853522744   0.000000000
   0.000000000   0.000000000   6.000000000

ATOMIC_POSITIONS (crystal)
C             0.3333333330        0.6666666660        0.5000000000
C             0.6666666660        0.3333333330        0.5000000000



     Writing config-only to output data dir ../tmp/gr.save/
     NEW-OLD atomic charge density approx. for the potential

     Check: negative core charge=   -0.000003

     negative rho (up, down):  1.210E-04 0.000E+00
     extrapolated charge    8.00046, renormalised to    8.00000

     total cpu time spent up to now is      120.4 secs

     Self-consistent Calculation

     iteration #  1     ecut=    60.00 Ry     beta= 0.70
     Davidson diagonalization with overlap
     ethr =  1.00E-06,  avg # of iterations =  2.0

     Threshold (ethr) on eigenvalues was too large:
     Diagonalizing with lowered threshold

     Davidson diagonalization with overlap
     ethr =  3.00E-10,  avg # of iterations =  4.1

     negative rho (up, down):  1.210E-04 0.000E+00

     total cpu time spent up to now is      122.2 secs

     total energy              =     -23.90996886 Ry
     estimated scf accuracy    <       0.00000005 Ry

     iteration #  2     ecut=    60.00 Ry     beta= 0.70
     Davidson diagonalization with overlap
     ethr =  6.00E-10,  avg # of iterations =  4.3

     negative rho (up, down):  1.210E-04 0.000E+00

     total cpu time spent up to now is      123.3 secs

     total energy              =     -23.90996895 Ry
     estimated scf accuracy    <       0.00000004 Ry

     iteration #  3     ecut=    60.00 Ry     beta= 0.70
     Davidson diagonalization with overlap
     ethr =  5.12E-10,  avg # of iterations =  1.1

     negative rho (up, down):  1.210E-04 0.000E+00

     total cpu time spent up to now is      124.0 secs

     total energy              =     -23.90996895 Ry
     estimated scf accuracy    <       0.00000001 Ry

     iteration #  4     ecut=    60.00 Ry     beta= 0.70
     Davidson diagonalization with overlap
     ethr =  1.69E-10,  avg # of iterations =  2.2

     negative rho (up, down):  1.210E-04 0.000E+00

     total cpu time spent up to now is      124.8 secs

     total energy              =     -23.90996895 Ry
     estimated scf accuracy    <          2.1E-09 Ry

     iteration #  5     ecut=    60.00 Ry     beta= 0.70
     Davidson diagonalization with overlap
     ethr =  2.68E-11,  avg # of iterations =  4.3

     negative rho (up, down):  1.210E-04 0.000E+00

     total cpu time spent up to now is      125.7 secs

     total energy              =     -23.90996895 Ry
     estimated scf accuracy    <          1.5E-11 Ry

     iteration #  6     ecut=    60.00 Ry     beta= 0.70
     Davidson diagonalization with overlap
     ethr =  1.87E-13,  avg # of iterations =  6.4

     negative rho (up, down):  1.210E-04 0.000E+00

     total cpu time spent up to now is      127.1 secs

     total energy              =     -23.90996895 Ry
     estimated scf accuracy    <          3.5E-10 Ry

     iteration #  7     ecut=    60.00 Ry     beta= 0.70
     Davidson diagonalization with overlap
     ethr =  1.87E-13,  avg # of iterations =  1.0

     negative rho (up, down):  1.210E-04 0.000E+00

     total cpu time spent up to now is      127.8 secs

     total energy              =     -23.90996895 Ry
     estimated scf accuracy    <          3.7E-10 Ry

     iteration #  8     ecut=    60.00 Ry     beta= 0.70
     Davidson diagonalization with overlap
     ethr =  1.87E-13,  avg # of iterations =  4.4

     negative rho (up, down):  1.210E-04 0.000E+00

     total cpu time spent up to now is      128.9 secs

     total energy              =     -23.90996895 Ry
     estimated scf accuracy    <          1.5E-11 Ry

     iteration #  9     ecut=    60.00 Ry     beta= 0.70
     Davidson diagonalization with overlap
     ethr =  1.87E-13,  avg # of iterations =  1.1

     negative rho (up, down):  1.210E-04 0.000E+00

     total cpu time spent up to now is      129.6 secs

     total energy              =     -23.90996895 Ry
     estimated scf accuracy    <          1.5E-11 Ry

     iteration # 10     ecut=    60.00 Ry     beta= 0.70
     Davidson diagonalization with overlap
     ethr =  1.87E-13,  avg # of iterations =  1.1

     negative rho (up, down):  1.210E-04 0.000E+00

     total cpu time spent up to now is      130.3 secs

     total energy              =     -23.90996895 Ry
     estimated scf accuracy    <          2.0E-11 Ry

     iteration # 11     ecut=    60.00 Ry     beta= 0.70
     Davidson diagonalization with overlap
     ethr =  1.87E-13,  avg # of iterations =  1.0

     negative rho (up, down):  1.211E-04 0.000E+00

     total cpu time spent up to now is      131.0 secs

     End of self-consistent calculation

          k = 0.0000 0.0000 0.0000 (  4287 PWs)   bands (ev):

   -21.2473  -9.3497  -4.7888  -4.7888   1.4101   2.2297   2.4816   4.4584

          k =-0.0000 0.0976 0.0000 (  4260 PWs)   bands (ev):

   -21.0834  -9.1534  -5.4375  -5.1271   1.6345   2.4556   2.7081   4.6818

          k =-0.0000 0.1953 0.0000 (  4270 PWs)   bands (ev):

   -20.5934  -8.5700  -7.0719  -5.9196   2.3076   3.1323   3.3877   5.3487

          k =-0.0000 0.2929 0.0000 (  4280 PWs)   bands (ev):

   -19.7831  -9.1675  -7.6185  -6.7995   3.4275   4.2457   4.5194   5.5398

          k =-0.0000 0.3905 0.0000 (  4278 PWs)   bands (ev):

   -18.6645 -11.3691  -7.5332  -6.3493   3.2004   4.9845   5.8525   5.9709

          k =-0.0000 0.4882 0.0000 (  4316 PWs)   bands (ev):

   -17.2684 -13.4688  -8.0063  -4.9255   1.0632   5.7631   7.0045   7.8542

          k = 0.0000-0.5858 0.0000 (  4320 PWs)   bands (ev):

   -16.0017 -14.9779  -8.1687  -4.0802  -0.0357   5.6854   9.3346   9.4703

          k = 0.0846 0.1465 0.0000 (  4283 PWs)   bands (ev):

   -20.7564  -8.7635  -6.4689  -5.8044   2.0835   2.9071   3.1613   5.1274

          k = 0.0846 0.2441 0.0000 (  4269 PWs)   bands (ev):

   -20.1063  -8.1758  -7.9948  -6.8022   2.9806   3.8067   4.0677   6.0057

          k = 0.0846 0.3417 0.0000 (  4299 PWs)   bands (ev):

   -19.1417 -10.2468  -7.6884  -6.8780   4.2121   4.3222   5.1778   5.4252

          k = 0.0846 0.4394 0.0000 (  4319 PWs)   bands (ev):

   -17.8813 -12.3686  -8.3232  -5.4974   2.0113   6.0871   6.6042   6.9497

          k = 0.0846 0.5370 0.0000 (  4307 PWs)   bands (ev):

   -16.4008 -14.3106  -8.6517  -4.1870   0.2409   6.4218   8.3137   9.1300

          k = 0.1691 0.2929 0.0000 (  4306 PWs)   bands (ev):

   -19.3019  -9.5037  -8.1640  -7.0570   4.1004   4.6712   4.9256   5.2010

          k = 0.1691 0.3905 0.0000 (  4303 PWs)   bands (ev):

   -18.1941 -11.2297  -9.2197  -5.8029   2.7213   5.6598   6.4733   6.7842

          k = 0.1691 0.4882 0.0000 (  4299 PWs)   bands (ev):

   -16.8180 -13.1403  -9.7950  -4.3751   0.8072   7.6355   8.3238   8.3832

          k = 0.1691 0.5858 0.0000 (  4296 PWs)   bands (ev):

   -15.5810 -14.5777  -9.9796  -3.4816  -0.2621   8.2268   9.8763   9.9082

          k = 0.2537 0.4394 0.0000 (  4304 PWs)   bands (ev):

   -16.9658 -12.2626 -10.7037  -4.4592   1.1054   7.4226   8.1019   8.5882

          k = 0.2537 0.5370 0.0000 (  4297 PWs)   bands (ev):

   -15.5428 -13.6846 -11.4107  -3.0723  -0.4162   9.1530   9.5416  10.4808

          k = 0.3382 0.5858 0.0000 (  4302 PWs)   bands (ev):

   -14.3247 -14.3247 -12.3097  -1.7152  -1.7152   8.9015  11.1588  11.1588

     the Fermi energy is    -1.6773 ev

!    total energy              =     -23.90996895 Ry
     estimated scf accuracy    <          8.4E-12 Ry
     smearing contrib. (-TS)   =      -0.00018232 Ry
     internal energy E=F+TS    =     -23.90978663 Ry

     The total energy is F=E-TS. E is the sum of the following terms:
     one-electron contribution =    -157.39677561 Ry
     hartree contribution      =      80.16088121 Ry
     xc contribution           =      -8.30338420 Ry
     ewald contribution        =      61.62949197 Ry

     convergence has been achieved in  11 iterations

     negative rho (up, down):  1.211E-04 0.000E+00

     Forces acting on atoms (cartesian axes, Ry/au):

     atom    1 type  1   force =    -0.00000000   -0.00000000    0.00000000
     atom    2 type  1   force =     0.00000000    0.00000000    0.00000000

     Total force =     0.000000     Total SCF correction =     0.000000


     Computing stress (Cartesian axis) and pressure


     negative rho (up, down):  1.211E-04 0.000E+00
          total   stress  (Ry/bohr**3)                   (kbar)     P=       -0.12
   0.00000001   0.00000000   0.00000000            0.00        0.00        0.00
  -0.00000000   0.00000001   0.00000000           -0.00        0.00        0.00
  -0.00000000   0.00000000  -0.00000254           -0.00        0.00       -0.37

     Energy error            =      8.5E-09 Ry
     Gradient error          =      1.4E-25 Ry/Bohr
     Cell gradient error     =      1.5E-03 kbar

     bfgs converged in   5 scf cycles and   4 bfgs steps
     (criteria: energy <  1.0E-05 Ry, force <  1.0E-04Ry/Bohr, cell <  5.0E-02kbar)

     End of BFGS Geometry Optimization

     Final enthalpy           =     -23.9099689524 Ry

     File ../tmp/gr.bfgs deleted, as requested
Begin final coordinates
     new unit-cell volume =    532.19090 a.u.^3 (    78.86255 Ang^3 )
     density =      0.50580 g/cm^3

CELL_PARAMETERS (alat=  4.72431531)
   0.985563172   0.000000000   0.000000000
  -0.492781586   0.853522744   0.000000000
   0.000000000   0.000000000   6.000000000

ATOMIC_POSITIONS (crystal)
C             0.3333333330        0.6666666660        0.5000000000
C             0.6666666660        0.3333333330        0.5000000000
End final coordinates



     Writing config-only to output data dir ../tmp/gr.save/

     Final scf calculation at the relaxed structure.
     The G-vectors are recalculated for the final unit cell
     Results may differ from those at the preceding step.

     G-vector sticks info
     --------------------
     sticks:   dense  smooth     PW     G-vecs:    dense   smooth      PW
     Sum         361     361    109                33523    33523    5791

     Using Slab Decomposition



     bravais-lattice index     =            4
     lattice parameter (alat)  =       4.7243  a.u.
     unit-cell volume          =     532.1909 (a.u.)^3
     number of atoms/cell      =            2
     number of atomic types    =            1
     number of electrons       =         8.00
     number of Kohn-Sham states=            8
     kinetic-energy cutoff     =      60.0000  Ry
     charge density cutoff     =     240.0000  Ry
     scf convergence threshold =      1.0E-11
     mixing beta               =       0.7000
     number of iterations used =            8  plain     mixing
     press convergence thresh. =      5.0E-02
     Exchange-correlation= PBE
                           (   1   4   3   4   0   0   0)

     celldm(1)=   4.724315  celldm(2)=   0.000000  celldm(3)=   6.000000
     celldm(4)=   0.000000  celldm(5)=   0.000000  celldm(6)=   0.000000

     crystal axes: (cart. coord. in units of alat)
               a(1) = (   0.985563   0.000000   0.000000 )  
               a(2) = (  -0.492782   0.853523   0.000000 )  
               a(3) = (   0.000000   0.000000   6.000000 )  

     reciprocal axes: (cart. coord. in units 2 pi/alat)
               b(1) = (  1.014648  0.585807 -0.000000 )  
               b(2) = ( -0.000000  1.171615  0.000000 )  
               b(3) = (  0.000000 -0.000000  0.166667 )  


     PseudoPot. # 1 for C  read from file:
     ../pseudo/C.pbe-n-rrkjus_psl.0.1.UPF
     MD5 check sum: 96a6a315177d77e6c95bf6fd3870f9e3
     Pseudo is Ultrasoft + core correction, Zval =  4.0
     Generated using &quot;atomic&quot; code by A. Dal Corso  v.6.3MaX
     Using radial grid of 1073 points,  4 beta functions with: 
                l(1) =   0
                l(2) =   0
                l(3) =   1
                l(4) =   1
     Q(r) pseudized with 0 coefficients 


     atomic species   valence    mass     pseudopotential
        C              4.00    12.01070     C ( 1.00)

     24 Sym. Ops., with inversion, found



   Cartesian axes

     site n.     atom                  positions (alat units)
         1           C   tau(   1) = (   0.0000000   0.5690152   3.0000000  )
         2           C   tau(   2) = (   0.4927816   0.2845076   3.0000000  )

     number of k points=    19  Marzari-Vanderbilt smearing, width (Ry)=  0.0200
                       cart. coord. in units 2pi/alat
        k(    1) = (   0.0000000   0.0000000   0.0000000), wk =   0.0138889
        k(    2) = (  -0.0000000   0.0976346   0.0000000), wk =   0.0833333
        k(    3) = (  -0.0000000   0.1952692   0.0000000), wk =   0.0833333
        k(    4) = (  -0.0000000   0.2929037   0.0000000), wk =   0.0833333
        k(    5) = (  -0.0000000   0.3905383   0.0000000), wk =   0.0833333
        k(    6) = (  -0.0000000   0.4881729   0.0000000), wk =   0.0833333
        k(    7) = (   0.0000000  -0.5858075   0.0000000), wk =   0.0416667
        k(    8) = (   0.0845540   0.1464519   0.0000000), wk =   0.0833333
        k(    9) = (   0.0845540   0.2440864   0.0000000), wk =   0.1666667
        k(   10) = (   0.0845540   0.3417210   0.0000000), wk =   0.1666667
        k(   11) = (   0.0845540   0.4393556   0.0000000), wk =   0.1666667
        k(   12) = (   0.0845540   0.5369902   0.0000000), wk =   0.1666667
        k(   13) = (   0.1691081   0.2929037   0.0000000), wk =   0.0833333
        k(   14) = (   0.1691081   0.3905383   0.0000000), wk =   0.1666667
        k(   15) = (   0.1691081   0.4881729   0.0000000), wk =   0.1666667
        k(   16) = (   0.1691081   0.5858075   0.0000000), wk =   0.0833333
        k(   17) = (   0.2536621   0.4393556   0.0000000), wk =   0.0833333
        k(   18) = (   0.2536621   0.5369902   0.0000000), wk =   0.1666667
        k(   19) = (   0.3382161   0.5858075   0.0000000), wk =   0.0277778

     Dense  grid:    33523 G-vectors     FFT dimensions: (  24,  24, 144)

     Estimated max dynamical RAM per process >      57.40 MB

     Check: negative core charge=   -0.000003

     Initial potential from superposition of free atoms

     starting charge       7.9999, renormalised to       8.0000

     negative rho (up, down):  9.023E-05 0.000E+00
     Starting wfcs are    8 randomized atomic wfcs

     total cpu time spent up to now is      134.4 secs

     Self-consistent Calculation

     iteration #  1     ecut=    60.00 Ry     beta= 0.70
     Davidson diagonalization with overlap
     c_bands:  1 eigenvalues not converged
     c_bands:  5 eigenvalues not converged
     c_bands:  5 eigenvalues not converged
     c_bands:  4 eigenvalues not converged
     c_bands:  1 eigenvalues not converged
     c_bands:  1 eigenvalues not converged
     c_bands:  1 eigenvalues not converged
     c_bands:  2 eigenvalues not converged
     c_bands:  4 eigenvalues not converged
     c_bands:  5 eigenvalues not converged
     c_bands:  2 eigenvalues not converged
     c_bands:  2 eigenvalues not converged
     c_bands:  1 eigenvalues not converged
     c_bands:  1 eigenvalues not converged
     c_bands:  4 eigenvalues not converged
     c_bands:  5 eigenvalues not converged
     c_bands:  3 eigenvalues not converged
     c_bands:  3 eigenvalues not converged
     c_bands:  3 eigenvalues not converged
     ethr =  1.00E-06,  avg # of iterations = 46.3

     negative rho (up, down):  5.033E-05 0.000E+00

     total cpu time spent up to now is      144.8 secs

     total energy              =     -23.87787622 Ry
     estimated scf accuracy    <       0.20416984 Ry

     iteration #  2     ecut=    60.00 Ry     beta= 0.70
     Davidson diagonalization with overlap
     ethr =  2.55E-03,  avg # of iterations =  1.5

     negative rho (up, down):  2.486E-05 0.000E+00

     total cpu time spent up to now is      145.5 secs

     total energy              =     -23.89114339 Ry
     estimated scf accuracy    <       0.00515863 Ry

     iteration #  3     ecut=    60.00 Ry     beta= 0.70
     Davidson diagonalization with overlap
     c_bands:  1 eigenvalues not converged
     c_bands:  1 eigenvalues not converged
     c_bands:  1 eigenvalues not converged
     c_bands:  1 eigenvalues not converged
     c_bands:  1 eigenvalues not converged
     c_bands:  2 eigenvalues not converged
     ethr =  6.45E-05,  avg # of iterations = 16.4

     negative rho (up, down):  2.743E-05 0.000E+00

     total cpu time spent up to now is      148.6 secs

     total energy              =     -23.91251143 Ry
     estimated scf accuracy    <       0.00785843 Ry

     iteration #  4     ecut=    60.00 Ry     beta= 0.70
     Davidson diagonalization with overlap
     ethr =  6.45E-05,  avg # of iterations =  3.7

     negative rho (up, down):  1.265E-04 0.000E+00

     total cpu time spent up to now is      149.4 secs

     total energy              =     -23.90816339 Ry
     estimated scf accuracy    <       0.00698097 Ry

     iteration #  5     ecut=    60.00 Ry     beta= 0.70
     Davidson diagonalization with overlap
     ethr =  6.45E-05,  avg # of iterations =  2.8

     negative rho (up, down):  1.536E-04 0.000E+00

     total cpu time spent up to now is      150.2 secs

     total energy              =     -23.90943423 Ry
     estimated scf accuracy    <       0.00041240 Ry

     iteration #  6     ecut=    60.00 Ry     beta= 0.70
     Davidson diagonalization with overlap
     c_bands:  1 eigenvalues not converged
     c_bands:  1 eigenvalues not converged
     ethr =  5.15E-06,  avg # of iterations =  9.5

     negative rho (up, down):  1.220E-04 0.000E+00

     total cpu time spent up to now is      152.0 secs

     total energy              =     -23.90977878 Ry
     estimated scf accuracy    <       0.00109158 Ry

     iteration #  7     ecut=    60.00 Ry     beta= 0.70
     Davidson diagonalization with overlap
     ethr =  5.15E-06,  avg # of iterations =  3.4

     negative rho (up, down):  1.285E-04 0.000E+00

     total cpu time spent up to now is      152.8 secs

     total energy              =     -23.90980980 Ry
     estimated scf accuracy    <       0.00007963 Ry

     iteration #  8     ecut=    60.00 Ry     beta= 0.70
     Davidson diagonalization with overlap
     ethr =  9.95E-07,  avg # of iterations =  6.1

     negative rho (up, down):  1.291E-04 0.000E+00

     total cpu time spent up to now is      154.1 secs

     total energy              =     -23.90991847 Ry
     estimated scf accuracy    <       0.00003798 Ry

     iteration #  9     ecut=    60.00 Ry     beta= 0.70
     Davidson diagonalization with overlap
     ethr =  4.75E-07,  avg # of iterations =  1.8

     negative rho (up, down):  1.313E-04 0.000E+00

     total cpu time spent up to now is      154.8 secs

     total energy              =     -23.90991266 Ry
     estimated scf accuracy    <       0.00001576 Ry

     iteration # 10     ecut=    60.00 Ry     beta= 0.70
     Davidson diagonalization with overlap
     ethr =  1.97E-07,  avg # of iterations =  3.1

     negative rho (up, down):  1.317E-04 0.000E+00

     total cpu time spent up to now is      155.7 secs

     total energy              =     -23.90992067 Ry
     estimated scf accuracy    <       0.00000218 Ry

     iteration # 11     ecut=    60.00 Ry     beta= 0.70
     Davidson diagonalization with overlap
     ethr =  2.72E-08,  avg # of iterations =  4.7

     negative rho (up, down):  1.306E-04 0.000E+00

     total cpu time spent up to now is      156.8 secs

     total energy              =     -23.90992134 Ry
     estimated scf accuracy    <       0.00000991 Ry

     iteration # 12     ecut=    60.00 Ry     beta= 0.70
     Davidson diagonalization with overlap
     ethr =  2.72E-08,  avg # of iterations =  1.4

     negative rho (up, down):  1.280E-04 0.000E+00

     total cpu time spent up to now is      157.5 secs

     total energy              =     -23.90991833 Ry
     estimated scf accuracy    <       0.00000533 Ry

     iteration # 13     ecut=    60.00 Ry     beta= 0.70
     Davidson diagonalization with overlap
     ethr =  2.72E-08,  avg # of iterations =  2.6

     negative rho (up, down):  1.264E-04 0.000E+00

     total cpu time spent up to now is      158.4 secs

     total energy              =     -23.90991903 Ry
     estimated scf accuracy    <       0.00000023 Ry

     iteration # 14     ecut=    60.00 Ry     beta= 0.70
     Davidson diagonalization with overlap
     ethr =  2.85E-09,  avg # of iterations =  5.1

     negative rho (up, down):  1.257E-04 0.000E+00

     total cpu time spent up to now is      159.5 secs

     total energy              =     -23.90992091 Ry
     estimated scf accuracy    <       0.00000197 Ry

     iteration # 15     ecut=    60.00 Ry     beta= 0.70
     Davidson diagonalization with overlap
     ethr =  2.85E-09,  avg # of iterations =  1.9

     negative rho (up, down):  1.268E-04 0.000E+00

     total cpu time spent up to now is      160.3 secs

     total energy              =     -23.90991931 Ry
     estimated scf accuracy    <       0.00000312 Ry

     iteration # 16     ecut=    60.00 Ry     beta= 0.70
     Davidson diagonalization with overlap
     ethr =  2.85E-09,  avg # of iterations =  4.6

     negative rho (up, down):  1.271E-04 0.000E+00

     total cpu time spent up to now is      161.2 secs

     total energy              =     -23.90991931 Ry
     estimated scf accuracy    <       0.00000035 Ry

     iteration # 17     ecut=    60.00 Ry     beta= 0.70
     Davidson diagonalization with overlap
     ethr =  2.85E-09,  avg # of iterations =  2.1

     negative rho (up, down):  1.272E-04 0.000E+00

     total cpu time spent up to now is      161.9 secs

     total energy              =     -23.90991932 Ry
     estimated scf accuracy    <       0.00000007 Ry

     iteration # 18     ecut=    60.00 Ry     beta= 0.70
     Davidson diagonalization with overlap
     ethr =  9.28E-10,  avg # of iterations =  3.9

     negative rho (up, down):  1.273E-04 0.000E+00

     total cpu time spent up to now is      162.9 secs

     total energy              =     -23.90991938 Ry
     estimated scf accuracy    <          8.4E-09 Ry

     iteration # 19     ecut=    60.00 Ry     beta= 0.70
     Davidson diagonalization with overlap
     ethr =  1.05E-10,  avg # of iterations =  3.3

     negative rho (up, down):  1.273E-04 0.000E+00

     total cpu time spent up to now is      163.7 secs

     total energy              =     -23.90991938 Ry
     estimated scf accuracy    <          4.3E-09 Ry

     iteration # 20     ecut=    60.00 Ry     beta= 0.70
     Davidson diagonalization with overlap
     ethr =  5.43E-11,  avg # of iterations =  1.8

     negative rho (up, down):  1.273E-04 0.000E+00

     total cpu time spent up to now is      164.5 secs

     total energy              =     -23.90991938 Ry
     estimated scf accuracy    <          1.7E-09 Ry

     iteration # 21     ecut=    60.00 Ry     beta= 0.70
     Davidson diagonalization with overlap
     ethr =  2.13E-11,  avg # of iterations =  4.4

     negative rho (up, down):  1.272E-04 0.000E+00

     total cpu time spent up to now is      165.5 secs

     total energy              =     -23.90991938 Ry
     estimated scf accuracy    <          1.3E-09 Ry

     iteration # 22     ecut=    60.00 Ry     beta= 0.70
     Davidson diagonalization with overlap
     ethr =  1.66E-11,  avg # of iterations =  1.6

     negative rho (up, down):  1.272E-04 0.000E+00

     total cpu time spent up to now is      166.2 secs

     total energy              =     -23.90991938 Ry
     estimated scf accuracy    <          9.3E-11 Ry

     iteration # 23     ecut=    60.00 Ry     beta= 0.70
     Davidson diagonalization with overlap
     ethr =  1.17E-12,  avg # of iterations =  4.9

     negative rho (up, down):  1.272E-04 0.000E+00

     total cpu time spent up to now is      167.4 secs

     total energy              =     -23.90991938 Ry
     estimated scf accuracy    <          2.9E-09 Ry

     iteration # 24     ecut=    60.00 Ry     beta= 0.70
     Davidson diagonalization with overlap
     ethr =  1.17E-12,  avg # of iterations =  1.2

     negative rho (up, down):  1.272E-04 0.000E+00

     total cpu time spent up to now is      168.1 secs

     total energy              =     -23.90991938 Ry
     estimated scf accuracy    <          2.6E-09 Ry

     iteration # 25     ecut=    60.00 Ry     beta= 0.70
     Davidson diagonalization with overlap
     ethr =  1.17E-12,  avg # of iterations =  4.7

     negative rho (up, down):  1.272E-04 0.000E+00

     total cpu time spent up to now is      169.0 secs

     total energy              =     -23.90991938 Ry
     estimated scf accuracy    <          5.5E-09 Ry

     iteration # 26     ecut=    60.00 Ry     beta= 0.70
     Davidson diagonalization with overlap
     ethr =  1.17E-12,  avg # of iterations =  2.2

     negative rho (up, down):  1.272E-04 0.000E+00

     total cpu time spent up to now is      169.7 secs

     total energy              =     -23.90991938 Ry
     estimated scf accuracy    <          6.5E-09 Ry

     iteration # 27     ecut=    60.00 Ry     beta= 0.70
     Davidson diagonalization with overlap
     ethr =  1.17E-12,  avg # of iterations =  5.5

     negative rho (up, down):  1.272E-04 0.000E+00

     total cpu time spent up to now is      170.9 secs

     total energy              =     -23.90991938 Ry
     estimated scf accuracy    <          7.2E-11 Ry

     iteration # 28     ecut=    60.00 Ry     beta= 0.70
     Davidson diagonalization with overlap
     ethr =  9.06E-13,  avg # of iterations =  1.2

     negative rho (up, down):  1.272E-04 0.000E+00

     total cpu time spent up to now is      171.6 secs

     total energy              =     -23.90991938 Ry
     estimated scf accuracy    <          8.9E-11 Ry

     iteration # 29     ecut=    60.00 Ry     beta= 0.70
     Davidson diagonalization with overlap
     ethr =  9.06E-13,  avg # of iterations =  1.0

     negative rho (up, down):  1.272E-04 0.000E+00

     total cpu time spent up to now is      172.3 secs

     total energy              =     -23.90991938 Ry
     estimated scf accuracy    <          4.6E-11 Ry

     iteration # 30     ecut=    60.00 Ry     beta= 0.70
     Davidson diagonalization with overlap
     ethr =  5.74E-13,  avg # of iterations =  1.9

     negative rho (up, down):  1.272E-04 0.000E+00

     total cpu time spent up to now is      173.1 secs

     End of self-consistent calculation

          k = 0.0000 0.0000 0.0000 (  4149 PWs)   bands (ev):

   -21.2472  -9.3496  -4.7885  -4.7885   1.4137   2.2348   2.4906   4.4653

          k =-0.0000 0.0976 0.0000 (  4170 PWs)   bands (ev):

   -21.0833  -9.1534  -5.4374  -5.1269   1.6381   2.4607   2.7171   4.6886

          k =-0.0000 0.1953 0.0000 (  4194 PWs)   bands (ev):

   -20.5934  -8.5699  -7.0718  -5.9195   2.3111   3.1373   3.3968   5.3555

          k =-0.0000 0.2929 0.0000 (  4186 PWs)   bands (ev):

   -19.7830  -9.1674  -7.6184  -6.7994   3.4308   4.2505   4.5286   5.5402

          k =-0.0000 0.3905 0.0000 (  4180 PWs)   bands (ev):

   -18.6644 -11.3690  -7.5331  -6.3492   3.2004   4.9875   5.8573   5.9732

          k =-0.0000 0.4882 0.0000 (  4172 PWs)   bands (ev):

   -17.2683 -13.4686  -8.0061  -4.9254   1.0633   5.7632   7.0073   7.8600

          k = 0.0000-0.5858 0.0000 (  4184 PWs)   bands (ev):

   -16.0017 -14.9777  -8.1685  -4.0801  -0.0356   5.6855   9.3373   9.4721

          k = 0.0846 0.1465 0.0000 (  4169 PWs)   bands (ev):

   -20.7564  -8.7634  -6.4688  -5.8042   2.0869   2.9121   3.1704   5.1342

          k = 0.0846 0.2441 0.0000 (  4180 PWs)   bands (ev):

   -20.1063  -8.1757  -7.9947  -6.8021   2.9840   3.8117   4.0769   6.0108

          k = 0.0846 0.3417 0.0000 (  4175 PWs)   bands (ev):

   -19.1417 -10.2467  -7.6883  -6.8779   4.2122   4.3254   5.1826   5.4344

          k = 0.0846 0.4394 0.0000 (  4187 PWs)   bands (ev):

   -17.8812 -12.3684  -8.3231  -5.4973   2.0114   6.0898   6.6047   6.9552

          k = 0.0846 0.5370 0.0000 (  4195 PWs)   bands (ev):

   -16.4007 -14.3105  -8.6515  -4.1870   0.2409   6.4219   8.3163   9.1339

          k = 0.1691 0.2929 0.0000 (  4170 PWs)   bands (ev):

   -19.3018  -9.5035  -8.1638  -7.0569   4.1036   4.6712   4.9304   5.2102

          k = 0.1691 0.3905 0.0000 (  4172 PWs)   bands (ev):

   -18.1940 -11.2295  -9.2195  -5.8029   2.7214   5.6628   6.4778   6.7936

          k = 0.1691 0.4882 0.0000 (  4170 PWs)   bands (ev):

   -16.8179 -13.1402  -9.7948  -4.3750   0.8072   7.6380   8.3243   8.3870

          k = 0.1691 0.5858 0.0000 (  4178 PWs)   bands (ev):

   -15.5809 -14.5776  -9.9795  -3.4815  -0.2620   8.2270   9.8785   9.9106

          k = 0.2537 0.4394 0.0000 (  4156 PWs)   bands (ev):

   -16.9657 -12.2625 -10.7036  -4.4591   1.1054   7.4252   8.1052   8.5978

          k = 0.2537 0.5370 0.0000 (  4161 PWs)   bands (ev):

   -15.5427 -13.6845 -11.4106  -3.0723  -0.4161   9.1533   9.5436  10.4814

          k = 0.3382 0.5858 0.0000 (  4152 PWs)   bands (ev):

   -14.3246 -14.3246 -12.3095  -1.7152  -1.7152   8.9015  11.1598  11.1598

     the Fermi energy is    -1.6773 ev

!    total energy              =     -23.90991938 Ry
     estimated scf accuracy    <          2.0E-13 Ry
     smearing contrib. (-TS)   =      -0.00018232 Ry
     internal energy E=F+TS    =     -23.90973706 Ry

     The total energy is F=E-TS. E is the sum of the following terms:
     one-electron contribution =    -157.39669006 Ry
     hartree contribution      =      80.16086580 Ry
     xc contribution           =      -8.30340476 Ry
     ewald contribution        =      61.62949197 Ry

     convergence has been achieved in  30 iterations

     negative rho (up, down):  1.272E-04 0.000E+00

     Forces acting on atoms (cartesian axes, Ry/au):

     atom    1 type  1   force =    -0.00000000   -0.00000000    0.00000000
     atom    2 type  1   force =     0.00000000    0.00000000    0.00000000

     Total force =     0.000000     Total SCF correction =     0.000000


     Computing stress (Cartesian axis) and pressure


     negative rho (up, down):  1.272E-04 0.000E+00
          total   stress  (Ry/bohr**3)                   (kbar)     P=       -0.16
  -0.00000031  -0.00000000   0.00000000           -0.05       -0.00        0.00
  -0.00000000  -0.00000031   0.00000000           -0.00       -0.05        0.00
   0.00000000  -0.00000000  -0.00000264            0.00       -0.00       -0.39


     Writing all to output data dir ../tmp/gr.save/

     init_run     :      2.49s CPU      2.55s WALL (       2 calls)
     electrons    :    144.15s CPU    155.92s WALL (       6 calls)
     update_pot   :      3.88s CPU      3.92s WALL (       4 calls)
     forces       :      3.51s CPU      3.55s WALL (       6 calls)
     stress       :      8.22s CPU      8.22s WALL (       6 calls)

     Called by init_run:
     wfcinit      :      0.61s CPU      0.61s WALL (       2 calls)
     potinit      :      0.64s CPU      0.66s WALL (       2 calls)
     hinit0       :      1.20s CPU      1.21s WALL (       2 calls)

     Called by electrons:
     c_bands      :    121.62s CPU    131.98s WALL (     142 calls)
     sum_band     :     16.56s CPU     16.63s WALL (     142 calls)
     v_of_rho     :      3.26s CPU      3.28s WALL (     146 calls)
     newd         :      1.97s CPU      1.99s WALL (     146 calls)
     mix_rho      :      0.75s CPU      0.75s WALL (     142 calls)

     Called by c_bands:
     init_us_2    :      2.26s CPU      2.32s WALL (    5662 calls)
     init_us_2:cp :      2.25s CPU      2.31s WALL (    5662 calls)
     cegterg      :    117.37s CPU    118.50s WALL (    2723 calls)

     Called by *egterg:
     cdiaghg      :      0.75s CPU      0.75s WALL (   14124 calls)
     h_psi        :     91.46s CPU     92.55s WALL (   14301 calls)
     s_psi        :      4.17s CPU      4.18s WALL (   14301 calls)
     g_psi        :      0.69s CPU      0.69s WALL (   11540 calls)

     Called by h_psi:
     h_psi:calbec :      4.45s CPU      4.45s WALL (   14301 calls)
     vloc_psi     :     82.44s CPU     83.50s WALL (   14301 calls)
     add_vuspsi   :      4.14s CPU      4.15s WALL (   14301 calls)

     General routines
     calbec       :      5.90s CPU      5.92s WALL (   17569 calls)
     fft          :      1.73s CPU      1.73s WALL (    1762 calls)
     ffts         :      0.13s CPU      0.13s WALL (     142 calls)
     fftw         :     86.36s CPU     87.37s WALL (  171282 calls)


     PWSCF        :   2m42.41s CPU   2m55.75s WALL


   This run was terminated on:  20:10:39  24Aug2023            

=------------------------------------------------------------------------------=
   JOB DONE.
=------------------------------------------------------------------------------=
