
     Program PWSCF v.6.4.1 starts on 19Aug2023 at  0:29:55 

     This program is part of the open-source Quantum ESPRESSO suite
     for quantum simulation of materials; please cite
         "P. Giannozzi et al., J. Phys.:Condens. Matter 21 395502 (2009);
         "P. Giannozzi et al., J. Phys.:Condens. Matter 29 465901 (2017);
          URL http://www.quantum-espresso.org", 
     in publications or presentations arising from this work. More details at
     http://www.quantum-espresso.org/quote

     Parallel version (MPI & OpenMP), running on      16 processor cores
     Number of MPI processes:                 1
     Threads/MPI process:                    16

     MPI processes distributed on     1 nodes
     Waiting for input...
     Reading input from standard input

     Current dimensions of program PWSCF are:
     Max number of different atomic species (ntypx) = 10
     Max number of k-points (npk) =  40000
     Max angular momentum in pseudopotentials (lmaxx) =  3

     Subspace diagonalization in iterative solution of the eigenvalue problem:
     a serial algorithm will be used


     G-vector sticks info
     --------------------
     sticks:   dense  smooth     PW     G-vecs:    dense   smooth      PW
     Sum         595     595    169                37479    37479    5883



     bravais-lattice index     =            4
     lattice parameter (alat)  =       4.6620  a.u.
     unit-cell volume          =     277.5410 (a.u.)^3
     number of atoms/cell      =            4
     number of atomic types    =            1
     number of electrons       =        16.00
     number of Kohn-Sham states=           12
     kinetic-energy cutoff     =     100.0000  Ry
     charge density cutoff     =     400.0000  Ry
     convergence threshold     =      1.0E-06
     mixing beta               =       0.7000
     number of iterations used =            8  plain     mixing
     Exchange-correlation      = SLA PZ NOGX NOGC ( 1  1  0  0 0 0)

     celldm(1)=   4.661954  celldm(2)=   0.000000  celldm(3)=   3.162951
     celldm(4)=   0.000000  celldm(5)=   0.000000  celldm(6)=   0.000000

     crystal axes: (cart. coord. in units of alat)
               a(1) = (   1.000000   0.000000   0.000000 )  
               a(2) = (  -0.500000   0.866025   0.000000 )  
               a(3) = (   0.000000   0.000000   3.162951 )  

     reciprocal axes: (cart. coord. in units 2 pi/alat)
               b(1) = (  1.000000  0.577350 -0.000000 )  
               b(2) = (  0.000000  1.154701  0.000000 )  
               b(3) = (  0.000000 -0.000000  0.316160 )  


     PseudoPot. # 1 for C  read from file:
     .\C.pz-vbc.UPF
     MD5 check sum: f697e42eaa1e52b77fcf7925dd36a1dd
     Pseudo is Norm-conserving, Zval =  4.0
     Generated by new atomic code, or converted to UPF format
     Using radial grid of  269 points,  1 beta functions with: 
                l(1) =   0

     atomic species   valence    mass     pseudopotential
        C              4.00    12.01100     C ( 1.00)

      8 Sym. Ops., with inversion, found ( 4 have fractional translation)



   Cartesian axes

     site n.     atom                  positions (alat units)
         1           C   tau(   1) = (   0.0000000   0.0000000   0.7907377  )
         2           C   tau(   2) = (   0.0000000   0.0000000   2.3722132  )
         3           C   tau(   3) = (  -0.0000500   0.5773791   0.7907377  )
         4           C   tau(   4) = (   0.5000500   0.2886463   2.3722132  )

     number of k points=   186  gaussian smearing, width (Ry)=  0.1000

     Number of k-points >= 100: set verbosity='high' to print them.

     Dense  grid:    37479 G-vectors     FFT dimensions: (  30,  30,  96)

     Estimated max dynamical RAM per process >     189.27 MB

     Initial potential from superposition of free atoms

     starting charge   15.99989, renormalised to   16.00000
     Starting wfcs are   16 randomized atomic wfcs

     total cpu time spent up to now is        6.8 secs

     Self-consistent Calculation

     iteration #  1     ecut=   100.00 Ry     beta= 0.70
     Davidson diagonalization with overlap
     ethr =  1.00E-02,  avg # of iterations =  3.4

     total cpu time spent up to now is       26.4 secs

     total energy              =     -45.52343163 Ry
     Harris-Foulkes estimate   =     -45.79780083 Ry
     estimated scf accuracy    <       0.43369487 Ry

     iteration #  2     ecut=   100.00 Ry     beta= 0.70
     Davidson diagonalization with overlap
     ethr =  2.71E-03,  avg # of iterations =  2.6

     total cpu time spent up to now is       44.5 secs

     total energy              =     -45.59869582 Ry
     Harris-Foulkes estimate   =     -45.60029245 Ry
     estimated scf accuracy    <       0.00533143 Ry

     iteration #  3     ecut=   100.00 Ry     beta= 0.70
     Davidson diagonalization with overlap
     ethr =  3.33E-05,  avg # of iterations =  4.7

     total cpu time spent up to now is       64.0 secs

     total energy              =     -45.59921334 Ry
     Harris-Foulkes estimate   =     -45.59924419 Ry
     estimated scf accuracy    <       0.00030396 Ry

     iteration #  4     ecut=   100.00 Ry     beta= 0.70
     Davidson diagonalization with overlap
     ethr =  1.90E-06,  avg # of iterations =  2.8

     total cpu time spent up to now is       78.7 secs

     End of self-consistent calculation

     Number of k-points >= 100: set verbosity='high' to print the bands.

     the Fermi energy is     5.0931 ev

!    total energy              =     -45.59922477 Ry
     Harris-Foulkes estimate   =     -45.59922459 Ry
     estimated scf accuracy    <       0.00000042 Ry

     The total energy is the sum of the following terms:

     one-electron contribution =     -23.96201185 Ry
     hartree contribution      =      18.72799276 Ry
     xc contribution           =     -13.84000775 Ry
     ewald contribution        =     -26.50952826 Ry
     smearing contrib. (-TS)   =      -0.01566966 Ry

     convergence has been achieved in   4 iterations

     init_run     :     17.94s CPU      6.79s WALL (       1 calls)
     electrons    :    171.86s CPU     71.81s WALL (       1 calls)

     Called by init_run:
     wfcinit      :     17.83s CPU      6.64s WALL (       1 calls)
     potinit      :      0.00s CPU      0.01s WALL (       1 calls)
     hinit0       :      0.11s CPU      0.13s WALL (       1 calls)

     Called by electrons:
     c_bands      :    142.39s CPU     59.63s WALL (       4 calls)
     sum_band     :     29.30s CPU     12.15s WALL (       4 calls)
     v_of_rho     :      0.02s CPU      0.02s WALL (       5 calls)
     mix_rho      :      0.08s CPU      0.02s WALL (       4 calls)

     Called by c_bands:
     init_us_2    :      1.92s CPU      0.74s WALL (    1674 calls)
     cegterg      :    139.47s CPU     58.54s WALL (     744 calls)

     Called by sum_band:

     Called by *egterg:
     h_psi        :    131.94s CPU     55.79s WALL (    3450 calls)
     g_psi        :      2.61s CPU      0.96s WALL (    2520 calls)
     cdiaghg      :      2.61s CPU      0.81s WALL (    3264 calls)

     Called by h_psi:
     h_psi:pot    :    129.08s CPU     54.27s WALL (    3450 calls)
     h_psi:calbec :      0.80s CPU      0.26s WALL (    3450 calls)
     vloc_psi     :    127.66s CPU     53.84s WALL (    3450 calls)
     add_vuspsi   :      0.61s CPU      0.16s WALL (    3450 calls)

     General routines
     calbec       :      0.77s CPU      0.25s WALL (    3450 calls)
     fft          :      0.03s CPU      0.00s WALL (      14 calls)
     ffts         :      0.02s CPU      0.00s WALL (       4 calls)
     fftw         :     35.92s CPU     12.19s WALL (   64624 calls)

     Parallel routines

     PWSCF        :   3m 9.91s CPU   1m18.67s WALL


   This run was terminated on:   0:31:14  19Aug2023            

=------------------------------------------------------------------------------=
   JOB DONE.
=------------------------------------------------------------------------------=
