
     Program PWSCF v.6.4.1 starts on 19Aug2023 at  0:31:14 

     This program is part of the open-source Quantum ESPRESSO suite
     for quantum simulation of materials; please cite
         "P. Giannozzi et al., J. Phys.:Condens. Matter 21 395502 (2009);
         "P. Giannozzi et al., J. Phys.:Condens. Matter 29 465901 (2017);
          URL http://www.quantum-espresso.org", 
     in publications or presentations arising from this work. More details at
     http://www.quantum-espresso.org/quote

     Parallel version (MPI & OpenMP), running on      16 processor cores
     Number of MPI processes:                 1
     Threads/MPI process:                    16

     MPI processes distributed on     1 nodes
     Waiting for input...
     Reading input from standard input

     Current dimensions of program PWSCF are:
     Max number of different atomic species (ntypx) = 10
     Max number of k-points (npk) =  40000
     Max angular momentum in pseudopotentials (lmaxx) =  3

     Subspace diagonalization in iterative solution of the eigenvalue problem:
     a serial algorithm will be used


     G-vector sticks info
     --------------------
     sticks:   dense  smooth     PW     G-vecs:    dense   smooth      PW
     Sum         595     595    187                37479    37479    6057



     bravais-lattice index     =            4
     lattice parameter (alat)  =       4.6620  a.u.
     unit-cell volume          =     277.5410 (a.u.)^3
     number of atoms/cell      =            4
     number of atomic types    =            1
     number of electrons       =        16.00
     number of Kohn-Sham states=           12
     kinetic-energy cutoff     =     100.0000  Ry
     charge density cutoff     =     400.0000  Ry
     convergence threshold     =      1.0E-06
     mixing beta               =       0.7000
     number of iterations used =            8  plain     mixing
     Exchange-correlation      = SLA PZ NOGX NOGC ( 1  1  0  0 0 0)

     celldm(1)=   4.661954  celldm(2)=   0.000000  celldm(3)=   3.162951
     celldm(4)=   0.000000  celldm(5)=   0.000000  celldm(6)=   0.000000

     crystal axes: (cart. coord. in units of alat)
               a(1) = (   1.000000   0.000000   0.000000 )  
               a(2) = (  -0.500000   0.866025   0.000000 )  
               a(3) = (   0.000000   0.000000   3.162951 )  

     reciprocal axes: (cart. coord. in units 2 pi/alat)
               b(1) = (  1.000000  0.577350 -0.000000 )  
               b(2) = (  0.000000  1.154701  0.000000 )  
               b(3) = (  0.000000 -0.000000  0.316160 )  


     PseudoPot. # 1 for C  read from file:
     .\C.pz-vbc.UPF
     MD5 check sum: f697e42eaa1e52b77fcf7925dd36a1dd
     Pseudo is Norm-conserving, Zval =  4.0
     Generated by new atomic code, or converted to UPF format
     Using radial grid of  269 points,  1 beta functions with: 
                l(1) =   0

     atomic species   valence    mass     pseudopotential
        C              4.00    12.01100     C ( 1.00)

      8 Sym. Ops., with inversion, found ( 4 have fractional translation)



   Cartesian axes

     site n.     atom                  positions (alat units)
         1           C   tau(   1) = (   0.0000000   0.0000000   0.7907377  )
         2           C   tau(   2) = (   0.0000000   0.0000000   2.3722132  )
         3           C   tau(   3) = (  -0.0000500   0.5773791   0.7907377  )
         4           C   tau(   4) = (   0.5000500   0.2886463   2.3722132  )

     number of k points=   301  gaussian smearing, width (Ry)=  0.1000

     Number of k-points >= 100: set verbosity='high' to print them.

     Dense  grid:    37479 G-vectors     FFT dimensions: (  30,  30,  96)

     Estimated max dynamical RAM per process >     287.97 MB

     Initial potential from superposition of free atoms

     starting charge   15.99989, renormalised to   16.00000
     Starting wfcs are   16 randomized atomic wfcs

     total cpu time spent up to now is       12.1 secs

     Self-consistent Calculation

     iteration #  1     ecut=   100.00 Ry     beta= 0.70
     Davidson diagonalization with overlap
     ethr =  1.00E-02,  avg # of iterations =  3.5

     total cpu time spent up to now is       44.0 secs

     total energy              =     -45.52342264 Ry
     Harris-Foulkes estimate   =     -45.79783752 Ry
     estimated scf accuracy    <       0.43377284 Ry

     iteration #  2     ecut=   100.00 Ry     beta= 0.70
     Davidson diagonalization with overlap
     ethr =  2.71E-03,  avg # of iterations =  2.7

     total cpu time spent up to now is       70.7 secs

     total energy              =     -45.59868595 Ry
     Harris-Foulkes estimate   =     -45.60028115 Ry
     estimated scf accuracy    <       0.00533409 Ry

     iteration #  3     ecut=   100.00 Ry     beta= 0.70
     Davidson diagonalization with overlap
     ethr =  3.33E-05,  avg # of iterations =  4.8

     total cpu time spent up to now is      100.8 secs

     total energy              =     -45.59921935 Ry
     Harris-Foulkes estimate   =     -45.59925017 Ry
     estimated scf accuracy    <       0.00030238 Ry

     iteration #  4     ecut=   100.00 Ry     beta= 0.70
     Davidson diagonalization with overlap
     ethr =  1.89E-06,  avg # of iterations =  2.8

     total cpu time spent up to now is      124.4 secs

     End of self-consistent calculation

     Number of k-points >= 100: set verbosity='high' to print the bands.

     the Fermi energy is     5.0940 ev

!    total energy              =     -45.59923123 Ry
     Harris-Foulkes estimate   =     -45.59923106 Ry
     estimated scf accuracy    <       0.00000047 Ry

     The total energy is the sum of the following terms:

     one-electron contribution =     -23.96205820 Ry
     hartree contribution      =      18.72802093 Ry
     xc contribution           =     -13.84001020 Ry
     ewald contribution        =     -26.50952826 Ry
     smearing contrib. (-TS)   =      -0.01565550 Ry

     convergence has been achieved in   4 iterations

     init_run     :     29.77s CPU     12.03s WALL (       1 calls)
     electrons    :    333.95s CPU    112.36s WALL (       1 calls)

     Called by init_run:
     wfcinit      :     29.56s CPU     11.83s WALL (       1 calls)
     potinit      :      0.05s CPU      0.01s WALL (       1 calls)
     hinit0       :      0.16s CPU      0.18s WALL (       1 calls)

     Called by electrons:
     c_bands      :    279.94s CPU     93.19s WALL (       4 calls)
     sum_band     :     53.84s CPU     19.13s WALL (       4 calls)
     v_of_rho     :      0.05s CPU      0.02s WALL (       5 calls)
     mix_rho      :      0.09s CPU      0.01s WALL (       4 calls)

     Called by c_bands:
     init_us_2    :      3.27s CPU      1.10s WALL (    2709 calls)
     cegterg      :    273.72s CPU     91.46s WALL (    1204 calls)

     Called by sum_band:

     Called by *egterg:
     h_psi        :    254.31s CPU     88.15s WALL (    5650 calls)
     g_psi        :      4.73s CPU      1.47s WALL (    4145 calls)
     cdiaghg      :      4.89s CPU      1.33s WALL (    5349 calls)

     Called by h_psi:
     h_psi:pot    :    247.00s CPU     85.73s WALL (    5650 calls)
     h_psi:calbec :      1.33s CPU      0.35s WALL (    5650 calls)
     vloc_psi     :    244.62s CPU     85.13s WALL (    5650 calls)
     add_vuspsi   :      0.92s CPU      0.22s WALL (    5650 calls)

     General routines
     calbec       :      1.31s CPU      0.34s WALL (    5650 calls)
     fft          :      0.00s CPU      0.01s WALL (      14 calls)
     ffts         :      0.00s CPU      0.00s WALL (       4 calls)
     fftw         :     67.52s CPU     19.04s WALL (  104648 calls)

     Parallel routines

     PWSCF        :   6m 3.80s CPU   2m 4.47s WALL


   This run was terminated on:   0:33:18  19Aug2023            

=------------------------------------------------------------------------------=
   JOB DONE.
=------------------------------------------------------------------------------=
