
     Program PWSCF v.6.4.1 starts on 19Aug2023 at  0:36:27 

     This program is part of the open-source Quantum ESPRESSO suite
     for quantum simulation of materials; please cite
         "P. Giannozzi et al., J. Phys.:Condens. Matter 21 395502 (2009);
         "P. Giannozzi et al., J. Phys.:Condens. Matter 29 465901 (2017);
          URL http://www.quantum-espresso.org", 
     in publications or presentations arising from this work. More details at
     http://www.quantum-espresso.org/quote

     Parallel version (MPI & OpenMP), running on      16 processor cores
     Number of MPI processes:                 1
     Threads/MPI process:                    16

     MPI processes distributed on     1 nodes
     Waiting for input...
     Reading input from standard input

     Current dimensions of program PWSCF are:
     Max number of different atomic species (ntypx) = 10
     Max number of k-points (npk) =  40000
     Max angular momentum in pseudopotentials (lmaxx) =  3

     Subspace diagonalization in iterative solution of the eigenvalue problem:
     a serial algorithm will be used


     G-vector sticks info
     --------------------
     sticks:   dense  smooth     PW     G-vecs:    dense   smooth      PW
     Sum         595     595    169                37479    37479    5931



     bravais-lattice index     =            4
     lattice parameter (alat)  =       4.6620  a.u.
     unit-cell volume          =     277.5410 (a.u.)^3
     number of atoms/cell      =            4
     number of atomic types    =            1
     number of electrons       =        16.00
     number of Kohn-Sham states=           12
     kinetic-energy cutoff     =     100.0000  Ry
     charge density cutoff     =     400.0000  Ry
     convergence threshold     =      1.0E-06
     mixing beta               =       0.7000
     number of iterations used =            8  plain     mixing
     Exchange-correlation      = SLA PZ NOGX NOGC ( 1  1  0  0 0 0)

     celldm(1)=   4.661954  celldm(2)=   0.000000  celldm(3)=   3.162951
     celldm(4)=   0.000000  celldm(5)=   0.000000  celldm(6)=   0.000000

     crystal axes: (cart. coord. in units of alat)
               a(1) = (   1.000000   0.000000   0.000000 )  
               a(2) = (  -0.500000   0.866025   0.000000 )  
               a(3) = (   0.000000   0.000000   3.162951 )  

     reciprocal axes: (cart. coord. in units 2 pi/alat)
               b(1) = (  1.000000  0.577350 -0.000000 )  
               b(2) = (  0.000000  1.154701  0.000000 )  
               b(3) = (  0.000000 -0.000000  0.316160 )  


     PseudoPot. # 1 for C  read from file:
     .\C.pz-vbc.UPF
     MD5 check sum: f697e42eaa1e52b77fcf7925dd36a1dd
     Pseudo is Norm-conserving, Zval =  4.0
     Generated by new atomic code, or converted to UPF format
     Using radial grid of  269 points,  1 beta functions with: 
                l(1) =   0

     atomic species   valence    mass     pseudopotential
        C              4.00    12.01100     C ( 1.00)

      8 Sym. Ops., with inversion, found ( 4 have fractional translation)



   Cartesian axes

     site n.     atom                  positions (alat units)
         1           C   tau(   1) = (   0.0000000   0.0000000   0.7907377  )
         2           C   tau(   2) = (   0.0000000   0.0000000   2.3722132  )
         3           C   tau(   3) = (  -0.0000500   0.5773791   0.7907377  )
         4           C   tau(   4) = (   0.5000500   0.2886463   2.3722132  )

     number of k points=   657  gaussian smearing, width (Ry)=  0.1000

     Number of k-points >= 100: set verbosity='high' to print them.

     Dense  grid:    37479 G-vectors     FFT dimensions: (  30,  30,  96)

     Estimated max dynamical RAM per process >     593.49 MB

     Initial potential from superposition of free atoms

     starting charge   15.99989, renormalised to   16.00000
     Starting wfcs are   16 randomized atomic wfcs

     total cpu time spent up to now is       27.0 secs

     Self-consistent Calculation

     iteration #  1     ecut=   100.00 Ry     beta= 0.70
     Davidson diagonalization with overlap
     ethr =  1.00E-02,  avg # of iterations =  3.4

     total cpu time spent up to now is       97.1 secs

     total energy              =     -45.52346126 Ry
     Harris-Foulkes estimate   =     -45.79788231 Ry
     estimated scf accuracy    <       0.43377580 Ry

     iteration #  2     ecut=   100.00 Ry     beta= 0.70
     Davidson diagonalization with overlap
     ethr =  2.71E-03,  avg # of iterations =  2.6

     total cpu time spent up to now is      156.0 secs

     total energy              =     -45.59869864 Ry
     Harris-Foulkes estimate   =     -45.60029617 Ry
     estimated scf accuracy    <       0.00533674 Ry

     iteration #  3     ecut=   100.00 Ry     beta= 0.70
     Davidson diagonalization with overlap
     ethr =  3.34E-05,  avg # of iterations =  5.0

     total cpu time spent up to now is      226.3 secs

     total energy              =     -45.59922017 Ry
     Harris-Foulkes estimate   =     -45.59925095 Ry
     estimated scf accuracy    <       0.00030318 Ry

     iteration #  4     ecut=   100.00 Ry     beta= 0.70
     Davidson diagonalization with overlap
     ethr =  1.89E-06,  avg # of iterations =  2.6

     total cpu time spent up to now is      281.8 secs

     End of self-consistent calculation

     Number of k-points >= 100: set verbosity='high' to print the bands.

     the Fermi energy is     5.0941 ev

!    total energy              =     -45.59923189 Ry
     Harris-Foulkes estimate   =     -45.59923172 Ry
     estimated scf accuracy    <       0.00000043 Ry

     The total energy is the sum of the following terms:

     one-electron contribution =     -23.96194292 Ry
     hartree contribution      =      18.72788928 Ry
     xc contribution           =     -13.83998621 Ry
     ewald contribution        =     -26.50952826 Ry
     smearing contrib. (-TS)   =      -0.01566379 Ry

     convergence has been achieved in   4 iterations

     init_run     :     85.25s CPU     26.97s WALL (       1 calls)
     electrons    :    642.55s CPU    254.77s WALL (       1 calls)

     Called by init_run:
     wfcinit      :     84.95s CPU     26.64s WALL (       1 calls)
     potinit      :      0.02s CPU      0.01s WALL (       1 calls)
     hinit0       :      0.28s CPU      0.31s WALL (       1 calls)

     Called by electrons:
     c_bands      :    539.48s CPU    211.00s WALL (       4 calls)
     sum_band     :    102.94s CPU     43.74s WALL (       4 calls)
     v_of_rho     :      0.03s CPU      0.02s WALL (       5 calls)
     mix_rho      :      0.05s CPU      0.01s WALL (       4 calls)

     Called by c_bands:
     init_us_2    :      8.05s CPU      2.73s WALL (    5913 calls)
     cegterg      :    527.84s CPU    207.21s WALL (    2628 calls)

     Called by sum_band:

     Called by *egterg:
     h_psi        :    513.11s CPU    199.23s WALL (   12268 calls)
     g_psi        :      9.17s CPU      3.25s WALL (    8983 calls)
     cdiaghg      :     10.12s CPU      3.02s WALL (   11611 calls)

     Called by h_psi:
     h_psi:pot    :    500.83s CPU    193.90s WALL (   12268 calls)
     h_psi:calbec :      2.61s CPU      0.88s WALL (   12268 calls)
     vloc_psi     :    496.11s CPU    192.34s WALL (   12268 calls)
     add_vuspsi   :      2.05s CPU      0.63s WALL (   12268 calls)

     General routines
     calbec       :      2.55s CPU      0.86s WALL (   12268 calls)
     fft          :      0.03s CPU      0.01s WALL (      14 calls)
     ffts         :      0.00s CPU      0.00s WALL (       4 calls)
     fftw         :    138.44s CPU     43.12s WALL (  228154 calls)

     Parallel routines

     PWSCF        :  12m 7.91s CPU   4m41.85s WALL


   This run was terminated on:   0:41: 9  19Aug2023            

=------------------------------------------------------------------------------=
   JOB DONE.
=------------------------------------------------------------------------------=
