
     Program PWSCF v.6.4.1 starts on 19Aug2023 at  0:41:10 

     This program is part of the open-source Quantum ESPRESSO suite
     for quantum simulation of materials; please cite
         "P. Giannozzi et al., J. Phys.:Condens. Matter 21 395502 (2009);
         "P. Giannozzi et al., J. Phys.:Condens. Matter 29 465901 (2017);
          URL http://www.quantum-espresso.org", 
     in publications or presentations arising from this work. More details at
     http://www.quantum-espresso.org/quote

     Parallel version (MPI & OpenMP), running on      16 processor cores
     Number of MPI processes:                 1
     Threads/MPI process:                    16

     MPI processes distributed on     1 nodes
     Waiting for input...
     Reading input from standard input

     Current dimensions of program PWSCF are:
     Max number of different atomic species (ntypx) = 10
     Max number of k-points (npk) =  40000
     Max angular momentum in pseudopotentials (lmaxx) =  3

     Subspace diagonalization in iterative solution of the eigenvalue problem:
     a serial algorithm will be used


     G-vector sticks info
     --------------------
     sticks:   dense  smooth     PW     G-vecs:    dense   smooth      PW
     Sum         595     595    187                37479    37479    6057



     bravais-lattice index     =            4
     lattice parameter (alat)  =       4.6620  a.u.
     unit-cell volume          =     277.5410 (a.u.)^3
     number of atoms/cell      =            4
     number of atomic types    =            1
     number of electrons       =        16.00
     number of Kohn-Sham states=           12
     kinetic-energy cutoff     =     100.0000  Ry
     charge density cutoff     =     400.0000  Ry
     convergence threshold     =      1.0E-06
     mixing beta               =       0.7000
     number of iterations used =            8  plain     mixing
     Exchange-correlation      = SLA PZ NOGX NOGC ( 1  1  0  0 0 0)

     celldm(1)=   4.661954  celldm(2)=   0.000000  celldm(3)=   3.162951
     celldm(4)=   0.000000  celldm(5)=   0.000000  celldm(6)=   0.000000

     crystal axes: (cart. coord. in units of alat)
               a(1) = (   1.000000   0.000000   0.000000 )  
               a(2) = (  -0.500000   0.866025   0.000000 )  
               a(3) = (   0.000000   0.000000   3.162951 )  

     reciprocal axes: (cart. coord. in units 2 pi/alat)
               b(1) = (  1.000000  0.577350 -0.000000 )  
               b(2) = (  0.000000  1.154701  0.000000 )  
               b(3) = (  0.000000 -0.000000  0.316160 )  


     PseudoPot. # 1 for C  read from file:
     .\C.pz-vbc.UPF
     MD5 check sum: f697e42eaa1e52b77fcf7925dd36a1dd
     Pseudo is Norm-conserving, Zval =  4.0
     Generated by new atomic code, or converted to UPF format
     Using radial grid of  269 points,  1 beta functions with: 
                l(1) =   0

     atomic species   valence    mass     pseudopotential
        C              4.00    12.01100     C ( 1.00)

      8 Sym. Ops., with inversion, found ( 4 have fractional translation)



   Cartesian axes

     site n.     atom                  positions (alat units)
         1           C   tau(   1) = (   0.0000000   0.0000000   0.7907377  )
         2           C   tau(   2) = (   0.0000000   0.0000000   2.3722132  )
         3           C   tau(   3) = (  -0.0000500   0.5773791   0.7907377  )
         4           C   tau(   4) = (   0.5000500   0.2886463   2.3722132  )

     number of k points=   910  gaussian smearing, width (Ry)=  0.1000

     Number of k-points >= 100: set verbosity='high' to print them.

     Dense  grid:    37479 G-vectors     FFT dimensions: (  30,  30,  96)

     Estimated max dynamical RAM per process >     810.62 MB

     Initial potential from superposition of free atoms

     starting charge   15.99989, renormalised to   16.00000
     Starting wfcs are   16 randomized atomic wfcs

     total cpu time spent up to now is       42.3 secs

     Self-consistent Calculation

     iteration #  1     ecut=   100.00 Ry     beta= 0.70
     Davidson diagonalization with overlap
     ethr =  1.00E-02,  avg # of iterations =  3.5

     total cpu time spent up to now is      144.9 secs

     total energy              =     -45.52350090 Ry
     Harris-Foulkes estimate   =     -45.79790120 Ry
     estimated scf accuracy    <       0.43375034 Ry

     iteration #  2     ecut=   100.00 Ry     beta= 0.70
     Davidson diagonalization with overlap
     ethr =  2.71E-03,  avg # of iterations =  2.5

     total cpu time spent up to now is      233.1 secs

     total energy              =     -45.59869370 Ry
     Harris-Foulkes estimate   =     -45.60028822 Ry
     estimated scf accuracy    <       0.00533205 Ry

     iteration #  3     ecut=   100.00 Ry     beta= 0.70
     Davidson diagonalization with overlap
     ethr =  3.33E-05,  avg # of iterations =  4.9

     total cpu time spent up to now is      330.0 secs

     total energy              =     -45.59922054 Ry
     Harris-Foulkes estimate   =     -45.59925140 Ry
     estimated scf accuracy    <       0.00030274 Ry

     iteration #  4     ecut=   100.00 Ry     beta= 0.70
     Davidson diagonalization with overlap
     ethr =  1.89E-06,  avg # of iterations =  2.9

     total cpu time spent up to now is      405.7 secs

     End of self-consistent calculation

     Number of k-points >= 100: set verbosity='high' to print the bands.

     the Fermi energy is     5.0940 ev

!    total energy              =     -45.59923216 Ry
     Harris-Foulkes estimate   =     -45.59923200 Ry
     estimated scf accuracy    <       0.00000046 Ry

     The total energy is the sum of the following terms:

     one-electron contribution =     -23.96201498 Ry
     hartree contribution      =      18.72797549 Ry
     xc contribution           =     -13.84000070 Ry
     ewald contribution        =     -26.50952826 Ry
     smearing contrib. (-TS)   =      -0.01566371 Ry

     convergence has been achieved in   4 iterations

     init_run     :     71.92s CPU     42.25s WALL (       1 calls)
     electrons    :    701.06s CPU    363.40s WALL (       1 calls)

     Called by init_run:
     wfcinit      :     71.52s CPU     41.79s WALL (       1 calls)
     potinit      :      0.02s CPU      0.01s WALL (       1 calls)
     hinit0       :      0.39s CPU      0.43s WALL (       1 calls)

     Called by electrons:
     c_bands      :    587.58s CPU    302.14s WALL (       4 calls)
     sum_band     :    113.42s CPU     61.23s WALL (       4 calls)
     v_of_rho     :      0.05s CPU      0.02s WALL (       5 calls)
     mix_rho      :      0.00s CPU      0.02s WALL (       4 calls)

     Called by c_bands:
     init_us_2    :      8.02s CPU      3.67s WALL (    8190 calls)
     cegterg      :    576.25s CPU    296.85s WALL (    3640 calls)

     Called by sum_band:

     Called by *egterg:
     h_psi        :    543.06s CPU    288.51s WALL (   17112 calls)
     g_psi        :      9.66s CPU      4.62s WALL (   12562 calls)
     cdiaghg      :     11.12s CPU      4.36s WALL (   16202 calls)

     Called by h_psi:
     h_psi:pot    :    529.12s CPU    280.85s WALL (   17112 calls)
     h_psi:calbec :      3.48s CPU      1.59s WALL (   17112 calls)
     vloc_psi     :    523.34s CPU    278.23s WALL (   17112 calls)
     add_vuspsi   :      2.00s CPU      0.97s WALL (   17112 calls)

     General routines
     calbec       :      3.39s CPU      1.54s WALL (   17112 calls)
     fft          :      0.00s CPU      0.00s WALL (      14 calls)
     ffts         :      0.02s CPU      0.00s WALL (       4 calls)
     fftw         :    141.12s CPU     61.53s WALL (  316464 calls)

     Parallel routines

     PWSCF        :  12m53.12s CPU   6m45.77s WALL


   This run was terminated on:   0:47:55  19Aug2023            

=------------------------------------------------------------------------------=
   JOB DONE.
=------------------------------------------------------------------------------=
