
     Program PWSCF v.6.4.1 starts on 19Aug2023 at  0:28:40 

     This program is part of the open-source Quantum ESPRESSO suite
     for quantum simulation of materials; please cite
         "P. Giannozzi et al., J. Phys.:Condens. Matter 21 395502 (2009);
         "P. Giannozzi et al., J. Phys.:Condens. Matter 29 465901 (2017);
          URL http://www.quantum-espresso.org", 
     in publications or presentations arising from this work. More details at
     http://www.quantum-espresso.org/quote

     Parallel version (MPI & OpenMP), running on      16 processor cores
     Number of MPI processes:                 1
     Threads/MPI process:                    16

     MPI processes distributed on     1 nodes
     Waiting for input...
     Reading input from standard input

     Current dimensions of program PWSCF are:
     Max number of different atomic species (ntypx) = 10
     Max number of k-points (npk) =  40000
     Max angular momentum in pseudopotentials (lmaxx) =  3

     Subspace diagonalization in iterative solution of the eigenvalue problem:
     a serial algorithm will be used


     G-vector sticks info
     --------------------
     sticks:   dense  smooth     PW     G-vecs:    dense   smooth      PW
     Sum         595     595    169                37479    37479    5859



     bravais-lattice index     =            4
     lattice parameter (alat)  =       4.6620  a.u.
     unit-cell volume          =     277.5410 (a.u.)^3
     number of atoms/cell      =            4
     number of atomic types    =            1
     number of electrons       =        16.00
     number of Kohn-Sham states=           12
     kinetic-energy cutoff     =     100.0000  Ry
     charge density cutoff     =     400.0000  Ry
     convergence threshold     =      1.0E-06
     mixing beta               =       0.7000
     number of iterations used =            8  plain     mixing
     Exchange-correlation      = SLA PZ NOGX NOGC ( 1  1  0  0 0 0)

     celldm(1)=   4.661954  celldm(2)=   0.000000  celldm(3)=   3.162951
     celldm(4)=   0.000000  celldm(5)=   0.000000  celldm(6)=   0.000000

     crystal axes: (cart. coord. in units of alat)
               a(1) = (   1.000000   0.000000   0.000000 )  
               a(2) = (  -0.500000   0.866025   0.000000 )  
               a(3) = (   0.000000   0.000000   3.162951 )  

     reciprocal axes: (cart. coord. in units 2 pi/alat)
               b(1) = (  1.000000  0.577350 -0.000000 )  
               b(2) = (  0.000000  1.154701  0.000000 )  
               b(3) = (  0.000000 -0.000000  0.316160 )  


     PseudoPot. # 1 for C  read from file:
     .\C.pz-vbc.UPF
     MD5 check sum: f697e42eaa1e52b77fcf7925dd36a1dd
     Pseudo is Norm-conserving, Zval =  4.0
     Generated by new atomic code, or converted to UPF format
     Using radial grid of  269 points,  1 beta functions with: 
                l(1) =   0

     atomic species   valence    mass     pseudopotential
        C              4.00    12.01100     C ( 1.00)

      8 Sym. Ops., with inversion, found ( 4 have fractional translation)



   Cartesian axes

     site n.     atom                  positions (alat units)
         1           C   tau(   1) = (   0.0000000   0.0000000   0.7907377  )
         2           C   tau(   2) = (   0.0000000   0.0000000   2.3722132  )
         3           C   tau(   3) = (  -0.0000500   0.5773791   0.7907377  )
         4           C   tau(   4) = (   0.5000500   0.2886463   2.3722132  )

     number of k points=     6  gaussian smearing, width (Ry)=  0.1000
                       cart. coord. in units 2pi/alat
        k(    1) = (   0.0000000   0.0000000   0.0000000), wk =   0.2500000
        k(    2) = (   0.0000000   0.0000000  -0.1580802), wk =   0.2500000
        k(    3) = (   0.0000000  -0.5773503   0.0000000), wk =   0.5000000
        k(    4) = (   0.0000000  -0.5773503  -0.1580802), wk =   0.5000000
        k(    5) = (  -0.5000000   0.2886751   0.0000000), wk =   0.2500000
        k(    6) = (  -0.5000000   0.2886751   0.1580802), wk =   0.2500000

     Dense  grid:    37479 G-vectors     FFT dimensions: (  30,  30,  96)

     Estimated max dynamical RAM per process >      34.79 MB

     Initial potential from superposition of free atoms

     starting charge   15.99989, renormalised to   16.00000
     Starting wfcs are   16 randomized atomic wfcs

     total cpu time spent up to now is        0.6 secs

     Self-consistent Calculation

     iteration #  1     ecut=   100.00 Ry     beta= 0.70
     Davidson diagonalization with overlap
     ethr =  1.00E-02,  avg # of iterations =  3.0

     total cpu time spent up to now is        1.2 secs

     total energy              =     -45.20360550 Ry
     Harris-Foulkes estimate   =     -45.53300983 Ry
     estimated scf accuracy    <       0.52321975 Ry

     iteration #  2     ecut=   100.00 Ry     beta= 0.70
     Davidson diagonalization with overlap
     ethr =  3.27E-03,  avg # of iterations =  2.3

     total cpu time spent up to now is        1.6 secs

     total energy              =     -45.28835066 Ry
     Harris-Foulkes estimate   =     -45.28974477 Ry
     estimated scf accuracy    <       0.00617961 Ry

     iteration #  3     ecut=   100.00 Ry     beta= 0.70
     Davidson diagonalization with overlap
     ethr =  3.86E-05,  avg # of iterations =  2.7

     total cpu time spent up to now is        2.1 secs

     total energy              =     -45.28880838 Ry
     Harris-Foulkes estimate   =     -45.28884009 Ry
     estimated scf accuracy    <       0.00040187 Ry

     iteration #  4     ecut=   100.00 Ry     beta= 0.70
     Davidson diagonalization with overlap
     ethr =  2.51E-06,  avg # of iterations =  1.2

     total cpu time spent up to now is        2.5 secs

     End of self-consistent calculation

          k = 0.0000 0.0000 0.0000 (  4721 PWs)   bands (ev):

   -13.8551 -13.7588  -2.8091  -1.8738   2.4054   2.4088   2.4098   2.4131
     8.1237  12.4205  13.7274  13.7330

          k = 0.0000 0.0000-0.1581 (  4702 PWs)   bands (ev):

   -13.8075 -13.8075  -2.3737  -2.3737   2.4071   2.4071   2.4114   2.4114
     9.8353   9.8354  13.7343  13.7344

          k = 0.0000-0.5774 0.0000 (  4664 PWs)   bands (ev):

    -8.5618  -8.5291  -7.7849  -7.7595  -1.0283  -1.0160   2.8261   3.1288
     6.8222   7.2177  12.6806  12.8105

          k = 0.0000-0.5774-0.1581 (  4688 PWs)   bands (ev):

    -8.5448  -8.5448  -7.7732  -7.7732  -1.0222  -1.0222   2.9882   2.9882
     6.9644   6.9644  12.7449  12.7450

          k =-0.5000 0.2887 0.0000 (  4664 PWs)   bands (ev):

    -8.5610  -8.5283  -7.7867  -7.7613  -1.0268  -1.0145   2.8276   3.1302
     6.8200   7.2151  12.6813  12.8111

          k =-0.5000 0.2887 0.1581 (  4688 PWs)   bands (ev):

    -8.5440  -8.5440  -7.7750  -7.7750  -1.0208  -1.0208   2.9897   2.9897
     6.9620   6.9620  12.7455  12.7456

     the Fermi energy is     5.0063 ev

!    total energy              =     -45.28881740 Ry
     Harris-Foulkes estimate   =     -45.28881669 Ry
     estimated scf accuracy    <       0.00000057 Ry

     The total energy is the sum of the following terms:

     one-electron contribution =     -23.89454551 Ry
     hartree contribution      =      19.05893171 Ry
     xc contribution           =     -13.92226968 Ry
     ewald contribution        =     -26.50952826 Ry
     smearing contrib. (-TS)   =      -0.02140565 Ry

     convergence has been achieved in   4 iterations

     init_run     :      0.73s CPU      0.29s WALL (       1 calls)
     electrons    :      5.20s CPU      1.83s WALL (       1 calls)

     Called by init_run:
     wfcinit      :      0.67s CPU      0.21s WALL (       1 calls)
     potinit      :      0.00s CPU      0.01s WALL (       1 calls)
     hinit0       :      0.06s CPU      0.06s WALL (       1 calls)

     Called by electrons:
     c_bands      :      3.81s CPU      1.45s WALL (       4 calls)
     sum_band     :      1.22s CPU      0.35s WALL (       4 calls)
     v_of_rho     :      0.09s CPU      0.02s WALL (       5 calls)
     mix_rho      :      0.08s CPU      0.02s WALL (       4 calls)

     Called by c_bands:
     init_us_2    :      0.11s CPU      0.02s WALL (      54 calls)
     cegterg      :      3.72s CPU      1.41s WALL (      24 calls)

     Called by sum_band:

     Called by *egterg:
     h_psi        :      3.72s CPU      1.40s WALL (      85 calls)
     g_psi        :      0.03s CPU      0.02s WALL (      55 calls)
     cdiaghg      :      0.08s CPU      0.01s WALL (      79 calls)

     Called by h_psi:
     h_psi:pot    :      3.67s CPU      1.37s WALL (      85 calls)
     h_psi:calbec :      0.05s CPU      0.00s WALL (      85 calls)
     vloc_psi     :      3.62s CPU      1.36s WALL (      85 calls)
     add_vuspsi   :      0.00s CPU      0.00s WALL (      85 calls)

     General routines
     calbec       :      0.05s CPU      0.00s WALL (      85 calls)
     fft          :      0.02s CPU      0.00s WALL (      14 calls)
     ffts         :      0.00s CPU      0.00s WALL (       4 calls)
     fftw         :      1.05s CPU      0.36s WALL (    2000 calls)

     Parallel routines

     PWSCF        :      5.97s CPU      2.47s WALL


   This run was terminated on:   0:28:42  19Aug2023            

=------------------------------------------------------------------------------=
   JOB DONE.
=------------------------------------------------------------------------------=
