
     Program PWSCF v.6.4.1 starts on 19Aug2023 at  0:28:42 

     This program is part of the open-source Quantum ESPRESSO suite
     for quantum simulation of materials; please cite
         "P. Giannozzi et al., J. Phys.:Condens. Matter 21 395502 (2009);
         "P. Giannozzi et al., J. Phys.:Condens. Matter 29 465901 (2017);
          URL http://www.quantum-espresso.org", 
     in publications or presentations arising from this work. More details at
     http://www.quantum-espresso.org/quote

     Parallel version (MPI & OpenMP), running on      16 processor cores
     Number of MPI processes:                 1
     Threads/MPI process:                    16

     MPI processes distributed on     1 nodes
     Waiting for input...
     Reading input from standard input

     Current dimensions of program PWSCF are:
     Max number of different atomic species (ntypx) = 10
     Max number of k-points (npk) =  40000
     Max angular momentum in pseudopotentials (lmaxx) =  3

     Subspace diagonalization in iterative solution of the eigenvalue problem:
     a serial algorithm will be used


     G-vector sticks info
     --------------------
     sticks:   dense  smooth     PW     G-vecs:    dense   smooth      PW
     Sum         595     595    169                37479    37479    5859



     bravais-lattice index     =            4
     lattice parameter (alat)  =       4.6620  a.u.
     unit-cell volume          =     277.5410 (a.u.)^3
     number of atoms/cell      =            4
     number of atomic types    =            1
     number of electrons       =        16.00
     number of Kohn-Sham states=           12
     kinetic-energy cutoff     =     100.0000  Ry
     charge density cutoff     =     400.0000  Ry
     convergence threshold     =      1.0E-06
     mixing beta               =       0.7000
     number of iterations used =            8  plain     mixing
     Exchange-correlation      = SLA PZ NOGX NOGC ( 1  1  0  0 0 0)

     celldm(1)=   4.661954  celldm(2)=   0.000000  celldm(3)=   3.162951
     celldm(4)=   0.000000  celldm(5)=   0.000000  celldm(6)=   0.000000

     crystal axes: (cart. coord. in units of alat)
               a(1) = (   1.000000   0.000000   0.000000 )  
               a(2) = (  -0.500000   0.866025   0.000000 )  
               a(3) = (   0.000000   0.000000   3.162951 )  

     reciprocal axes: (cart. coord. in units 2 pi/alat)
               b(1) = (  1.000000  0.577350 -0.000000 )  
               b(2) = (  0.000000  1.154701  0.000000 )  
               b(3) = (  0.000000 -0.000000  0.316160 )  


     PseudoPot. # 1 for C  read from file:
     .\C.pz-vbc.UPF
     MD5 check sum: f697e42eaa1e52b77fcf7925dd36a1dd
     Pseudo is Norm-conserving, Zval =  4.0
     Generated by new atomic code, or converted to UPF format
     Using radial grid of  269 points,  1 beta functions with: 
                l(1) =   0

     atomic species   valence    mass     pseudopotential
        C              4.00    12.01100     C ( 1.00)

      8 Sym. Ops., with inversion, found ( 4 have fractional translation)



   Cartesian axes

     site n.     atom                  positions (alat units)
         1           C   tau(   1) = (   0.0000000   0.0000000   0.7907377  )
         2           C   tau(   2) = (   0.0000000   0.0000000   2.3722132  )
         3           C   tau(   3) = (  -0.0000500   0.5773791   0.7907377  )
         4           C   tau(   4) = (   0.5000500   0.2886463   2.3722132  )

     number of k points=    21  gaussian smearing, width (Ry)=  0.1000
                       cart. coord. in units 2pi/alat
        k(    1) = (   0.0000000   0.0000000   0.0000000), wk =   0.0312500
        k(    2) = (   0.0000000   0.0000000   0.0790401), wk =   0.0625000
        k(    3) = (   0.0000000   0.0000000  -0.1580802), wk =   0.0312500
        k(    4) = (   0.0000000   0.2886751   0.0000000), wk =   0.1250000
        k(    5) = (   0.0000000   0.2886751   0.0790401), wk =   0.2500000
        k(    6) = (   0.0000000   0.2886751  -0.1580802), wk =   0.1250000
        k(    7) = (   0.0000000  -0.5773503   0.0000000), wk =   0.0625000
        k(    8) = (   0.0000000  -0.5773503   0.0790401), wk =   0.1250000
        k(    9) = (   0.0000000  -0.5773503  -0.1580802), wk =   0.0625000
        k(   10) = (   0.2500000   0.4330127   0.0000000), wk =   0.0625000
        k(   11) = (   0.2500000   0.4330127   0.0790401), wk =   0.1250000
        k(   12) = (   0.2500000   0.4330127  -0.1580802), wk =   0.0625000
        k(   13) = (   0.2500000  -0.1443376   0.0000000), wk =   0.0625000
        k(   14) = (   0.2500000  -0.1443376  -0.0790401), wk =   0.1250000
        k(   15) = (   0.2500000  -0.1443376   0.1580802), wk =   0.0625000
        k(   16) = (  -0.5000000   0.2886751   0.0000000), wk =   0.0312500
        k(   17) = (  -0.5000000   0.2886751  -0.0790401), wk =   0.0625000
        k(   18) = (  -0.5000000   0.2886751   0.1580802), wk =   0.0312500
        k(   19) = (  -0.2500000   0.4330127   0.0000000), wk =   0.1250000
        k(   20) = (  -0.2500000   0.4330127  -0.0790401), wk =   0.2500000
        k(   21) = (  -0.2500000   0.4330127   0.1580802), wk =   0.1250000

     Dense  grid:    37479 G-vectors     FFT dimensions: (  30,  30,  96)

     Estimated max dynamical RAM per process >      47.67 MB

     Initial potential from superposition of free atoms

     starting charge   15.99989, renormalised to   16.00000
     Starting wfcs are   16 randomized atomic wfcs

     total cpu time spent up to now is        0.9 secs

     Self-consistent Calculation

     iteration #  1     ecut=   100.00 Ry     beta= 0.70
     Davidson diagonalization with overlap
     ethr =  1.00E-02,  avg # of iterations =  3.0

     total cpu time spent up to now is        2.9 secs

     total energy              =     -45.52450013 Ry
     Harris-Foulkes estimate   =     -45.79974043 Ry
     estimated scf accuracy    <       0.43536791 Ry

     iteration #  2     ecut=   100.00 Ry     beta= 0.70
     Davidson diagonalization with overlap
     ethr =  2.72E-03,  avg # of iterations =  3.4

     total cpu time spent up to now is        4.7 secs

     total energy              =     -45.59988779 Ry
     Harris-Foulkes estimate   =     -45.60146227 Ry
     estimated scf accuracy    <       0.00537928 Ry

     iteration #  3     ecut=   100.00 Ry     beta= 0.70
     Davidson diagonalization with overlap
     ethr =  3.36E-05,  avg # of iterations =  4.0

     total cpu time spent up to now is        6.6 secs

     total energy              =     -45.60036240 Ry
     Harris-Foulkes estimate   =     -45.60039770 Ry
     estimated scf accuracy    <       0.00031891 Ry

     iteration #  4     ecut=   100.00 Ry     beta= 0.70
     Davidson diagonalization with overlap
     ethr =  1.99E-06,  avg # of iterations =  2.7

     total cpu time spent up to now is        8.1 secs

     End of self-consistent calculation

          k = 0.0000 0.0000 0.0000 (  4721 PWs)   bands (ev):

   -14.0862 -13.9938  -2.9498  -2.0473   2.0676   2.0708   2.0719   2.0751
     8.1368  12.3817  13.4898  13.4953

          k = 0.0000 0.0000 0.0790 (  4721 PWs)   bands (ev):

   -14.0730 -14.0076  -2.8315  -2.1961   2.0682   2.0704   2.0725   2.0747
     8.5954  11.4252  13.4917  13.4972

          k = 0.0000 0.0000-0.1581 (  4702 PWs)   bands (ev):

   -14.0406 -14.0406  -2.5285  -2.5285   2.0692   2.0692   2.0735   2.0735
     9.8247   9.8247  13.4964  13.4966

          k = 0.0000 0.2887 0.0000 (  4695 PWs)   bands (ev):

   -12.6474 -12.5651  -2.2421  -2.2180  -1.1782  -0.3447   0.0418   0.0518
    10.0278  12.3531  12.5812  13.1483

          k = 0.0000 0.2887 0.0790 (  4693 PWs)   bands (ev):

   -12.6355 -12.5774  -2.2387  -2.2216  -1.0680  -0.4807   0.0434   0.0504
    10.4528  12.3645  12.5058  13.0857

          k = 0.0000 0.2887-0.1581 (  4682 PWs)   bands (ev):

   -12.6067 -12.6067  -2.2302  -2.2302  -0.7871  -0.7871   0.0469   0.0469
    11.5562  11.5562  12.5719  12.5719

          k = 0.0000-0.5774 0.0000 (  4664 PWs)   bands (ev):

    -8.8313  -8.8001  -8.0314  -8.0071  -1.3342  -1.3225   2.6448   2.9353
     6.6553   7.0335  12.4796  12.6045

          k = 0.0000-0.5774 0.0790 (  4672 PWs)   bands (ev):

    -8.8265  -8.8044  -8.0283  -8.0110  -1.3326  -1.3243   2.6919   2.8984
     6.6850   6.9527  12.4976  12.5860

          k = 0.0000-0.5774-0.1581 (  4688 PWs)   bands (ev):

    -8.8152  -8.8152  -8.0201  -8.0201  -1.3285  -1.3285   2.7999   2.7999
     6.7937   6.7937  12.5415  12.5415

          k = 0.2500 0.4330 0.0000 (  4675 PWs)   bands (ev):

    -9.8706  -9.8071  -5.2237  -5.2046  -3.8765  -3.8617   2.0951   2.7350
     7.8992   8.1367  13.7494  15.7145

          k = 0.2500 0.4330 0.0790 (  4680 PWs)   bands (ev):

    -9.8614  -9.8165  -5.2209  -5.2073  -3.8745  -3.8640   2.1821   2.6338
     7.9340   8.1017  14.0242  15.3765

          k = 0.2500 0.4330-0.1581 (  4698 PWs)   bands (ev):

    -9.8391  -9.8391  -5.2141  -5.2141  -3.8694  -3.8694   2.4009   2.4009
     8.0176   8.0176  14.6834  14.6834

          k = 0.2500-0.1443 0.0000 (  4695 PWs)   bands (ev):

   -12.6474 -12.5652  -2.2437  -2.2196  -1.1781  -0.3445   0.0437   0.0538
    10.0278  12.3523  12.5806  13.1496

          k = 0.2500-0.1443-0.0790 (  4693 PWs)   bands (ev):

   -12.6356 -12.5775  -2.2402  -2.2231  -1.0679  -0.4805   0.0453   0.0524
    10.4527  12.3641  12.5052  13.0863

          k = 0.2500-0.1443 0.1581 (  4682 PWs)   bands (ev):

   -12.6067 -12.6067  -2.2317  -2.2317  -0.7869  -0.7869   0.0488   0.0488
    11.5564  11.5565  12.5708  12.5708

          k =-0.5000 0.2887 0.0000 (  4664 PWs)   bands (ev):

    -8.8306  -8.7995  -8.0330  -8.0087  -1.3327  -1.3210   2.6463   2.9367
     6.6531   7.0310  12.4801  12.6051

          k =-0.5000 0.2887-0.0790 (  4672 PWs)   bands (ev):

    -8.8258  -8.8037  -8.0299  -8.0127  -1.3311  -1.3228   2.6934   2.8998
     6.6828   6.9502  12.4981  12.5865

          k =-0.5000 0.2887 0.1581 (  4688 PWs)   bands (ev):

    -8.8145  -8.8145  -8.0217  -8.0217  -1.3270  -1.3270   2.8014   2.8014
     6.7913   6.7914  12.5421  12.5421

          k =-0.2500 0.4330 0.0000 (  4675 PWs)   bands (ev):

    -9.8706  -9.8072  -5.2251  -5.2059  -3.8750  -3.8601   2.0956   2.7356
     7.8979   8.1355  13.7494  15.7157

          k =-0.2500 0.4330-0.0790 (  4680 PWs)   bands (ev):

    -9.8615  -9.8166  -5.2223  -5.2087  -3.8729  -3.8624   2.1826   2.6344
     7.9327   8.1005  14.0243  15.3775

          k =-0.2500 0.4330 0.1581 (  4698 PWs)   bands (ev):

    -9.8392  -9.8392  -5.2155  -5.2155  -3.8678  -3.8678   2.4014   2.4014
     8.0163   8.0163  14.6839  14.6839

     the Fermi energy is     4.9156 ev

!    total energy              =     -45.60037565 Ry
     Harris-Foulkes estimate   =     -45.60037545 Ry
     estimated scf accuracy    <       0.00000033 Ry

     The total energy is the sum of the following terms:

     one-electron contribution =     -23.97688152 Ry
     hartree contribution      =      18.73535250 Ry
     xc contribution           =     -13.84225832 Ry
     ewald contribution        =     -26.50952826 Ry
     smearing contrib. (-TS)   =      -0.00706006 Ry

     convergence has been achieved in   4 iterations

     init_run     :      2.33s CPU      0.88s WALL (       1 calls)
     electrons    :     20.73s CPU      7.18s WALL (       1 calls)

     Called by init_run:
     wfcinit      :      2.27s CPU      0.78s WALL (       1 calls)
     potinit      :      0.00s CPU      0.01s WALL (       1 calls)
     hinit0       :      0.06s CPU      0.07s WALL (       1 calls)

     Called by electrons:
     c_bands      :     17.05s CPU      5.89s WALL (       4 calls)
     sum_band     :      3.62s CPU      1.25s WALL (       4 calls)
     v_of_rho     :      0.00s CPU      0.02s WALL (       5 calls)
     mix_rho      :      0.05s CPU      0.02s WALL (       4 calls)

     Called by c_bands:
     init_us_2    :      0.19s CPU      0.07s WALL (     189 calls)
     cegterg      :     16.81s CPU      5.78s WALL (      84 calls)

     Called by sum_band:

     Called by *egterg:
     h_psi        :     16.34s CPU      5.56s WALL (     380 calls)
     g_psi        :      0.31s CPU      0.11s WALL (     275 calls)
     cdiaghg      :      0.25s CPU      0.10s WALL (     359 calls)

     Called by h_psi:
     h_psi:pot    :     15.88s CPU      5.42s WALL (     380 calls)
     h_psi:calbec :      0.11s CPU      0.03s WALL (     380 calls)
     vloc_psi     :     15.73s CPU      5.36s WALL (     380 calls)
     add_vuspsi   :      0.02s CPU      0.03s WALL (     380 calls)

     General routines
     calbec       :      0.11s CPU      0.03s WALL (     380 calls)
     fft          :      0.00s CPU      0.00s WALL (      14 calls)
     ffts         :      0.00s CPU      0.00s WALL (       4 calls)
     fftw         :      5.06s CPU      1.45s WALL (    7294 calls)

     Parallel routines

     PWSCF        :     23.09s CPU      8.12s WALL


   This run was terminated on:   0:28:50  19Aug2023            

=------------------------------------------------------------------------------=
   JOB DONE.
=------------------------------------------------------------------------------=
