
     Program PWSCF v.6.4.1 starts on 19Aug2023 at  0:28:51 

     This program is part of the open-source Quantum ESPRESSO suite
     for quantum simulation of materials; please cite
         "P. Giannozzi et al., J. Phys.:Condens. Matter 21 395502 (2009);
         "P. Giannozzi et al., J. Phys.:Condens. Matter 29 465901 (2017);
          URL http://www.quantum-espresso.org", 
     in publications or presentations arising from this work. More details at
     http://www.quantum-espresso.org/quote

     Parallel version (MPI & OpenMP), running on      16 processor cores
     Number of MPI processes:                 1
     Threads/MPI process:                    16

     MPI processes distributed on     1 nodes
     Waiting for input...
     Reading input from standard input

     Current dimensions of program PWSCF are:
     Max number of different atomic species (ntypx) = 10
     Max number of k-points (npk) =  40000
     Max angular momentum in pseudopotentials (lmaxx) =  3

     Subspace diagonalization in iterative solution of the eigenvalue problem:
     a serial algorithm will be used


     G-vector sticks info
     --------------------
     sticks:   dense  smooth     PW     G-vecs:    dense   smooth      PW
     Sum         595     595    187                37479    37479    6057



     bravais-lattice index     =            4
     lattice parameter (alat)  =       4.6620  a.u.
     unit-cell volume          =     277.5410 (a.u.)^3
     number of atoms/cell      =            4
     number of atomic types    =            1
     number of electrons       =        16.00
     number of Kohn-Sham states=           12
     kinetic-energy cutoff     =     100.0000  Ry
     charge density cutoff     =     400.0000  Ry
     convergence threshold     =      1.0E-06
     mixing beta               =       0.7000
     number of iterations used =            8  plain     mixing
     Exchange-correlation      = SLA PZ NOGX NOGC ( 1  1  0  0 0 0)

     celldm(1)=   4.661954  celldm(2)=   0.000000  celldm(3)=   3.162951
     celldm(4)=   0.000000  celldm(5)=   0.000000  celldm(6)=   0.000000

     crystal axes: (cart. coord. in units of alat)
               a(1) = (   1.000000   0.000000   0.000000 )  
               a(2) = (  -0.500000   0.866025   0.000000 )  
               a(3) = (   0.000000   0.000000   3.162951 )  

     reciprocal axes: (cart. coord. in units 2 pi/alat)
               b(1) = (  1.000000  0.577350 -0.000000 )  
               b(2) = (  0.000000  1.154701  0.000000 )  
               b(3) = (  0.000000 -0.000000  0.316160 )  


     PseudoPot. # 1 for C  read from file:
     .\C.pz-vbc.UPF
     MD5 check sum: f697e42eaa1e52b77fcf7925dd36a1dd
     Pseudo is Norm-conserving, Zval =  4.0
     Generated by new atomic code, or converted to UPF format
     Using radial grid of  269 points,  1 beta functions with: 
                l(1) =   0

     atomic species   valence    mass     pseudopotential
        C              4.00    12.01100     C ( 1.00)

      8 Sym. Ops., with inversion, found ( 4 have fractional translation)



   Cartesian axes

     site n.     atom                  positions (alat units)
         1           C   tau(   1) = (   0.0000000   0.0000000   0.7907377  )
         2           C   tau(   2) = (   0.0000000   0.0000000   2.3722132  )
         3           C   tau(   3) = (  -0.0000500   0.5773791   0.7907377  )
         4           C   tau(   4) = (   0.5000500   0.2886463   2.3722132  )

     number of k points=    52  gaussian smearing, width (Ry)=  0.1000
                       cart. coord. in units 2pi/alat
        k(    1) = (   0.0000000   0.0000000   0.0000000), wk =   0.0092593
        k(    2) = (   0.0000000   0.0000000   0.0526934), wk =   0.0185185
        k(    3) = (   0.0000000   0.0000000   0.1053868), wk =   0.0185185
        k(    4) = (   0.0000000   0.0000000  -0.1580802), wk =   0.0092593
        k(    5) = (   0.0000000   0.1924501   0.0000000), wk =   0.0370370
        k(    6) = (   0.0000000   0.1924501   0.0526934), wk =   0.0740741
        k(    7) = (   0.0000000   0.1924501   0.1053868), wk =   0.0740741
        k(    8) = (   0.0000000   0.1924501  -0.1580802), wk =   0.0370370
        k(    9) = (   0.0000000   0.3849002   0.0000000), wk =   0.0370370
        k(   10) = (   0.0000000   0.3849002   0.0526934), wk =   0.0740741
        k(   11) = (   0.0000000   0.3849002   0.1053868), wk =   0.0740741
        k(   12) = (   0.0000000   0.3849002  -0.1580802), wk =   0.0370370
        k(   13) = (   0.0000000  -0.5773503   0.0000000), wk =   0.0185185
        k(   14) = (   0.0000000  -0.5773503   0.0526934), wk =   0.0370370
        k(   15) = (   0.0000000  -0.5773503   0.1053868), wk =   0.0370370
        k(   16) = (   0.0000000  -0.5773503  -0.1580802), wk =   0.0185185
        k(   17) = (   0.1666667   0.2886751   0.0000000), wk =   0.0185185
        k(   18) = (   0.1666667   0.2886751   0.0526934), wk =   0.0370370
        k(   19) = (   0.1666667   0.2886751   0.1053868), wk =   0.0370370
        k(   20) = (   0.1666667   0.2886751  -0.1580802), wk =   0.0185185
        k(   21) = (   0.1666667   0.4811252   0.0000000), wk =   0.0370370
        k(   22) = (   0.1666667   0.4811252   0.0526934), wk =   0.0740741
        k(   23) = (   0.1666667   0.4811252   0.1053868), wk =   0.0740741
        k(   24) = (   0.1666667   0.4811252  -0.1580802), wk =   0.0370370
        k(   25) = (   0.3333333   0.5773503   0.0000000), wk =   0.0185185
        k(   26) = (   0.3333333   0.5773503   0.0526934), wk =   0.0370370
        k(   27) = (   0.3333333   0.5773503   0.1053868), wk =   0.0370370
        k(   28) = (   0.3333333   0.5773503  -0.1580802), wk =   0.0185185
        k(   29) = (   0.1666667  -0.0962250   0.0000000), wk =   0.0185185
        k(   30) = (   0.1666667  -0.0962250  -0.0526934), wk =   0.0370370
        k(   31) = (   0.1666667  -0.0962250  -0.1053868), wk =   0.0370370
        k(   32) = (   0.1666667  -0.0962250   0.1580802), wk =   0.0185185
        k(   33) = (   0.3333333  -0.1924501   0.0000000), wk =   0.0185185
        k(   34) = (   0.3333333  -0.1924501  -0.0526934), wk =   0.0370370
        k(   35) = (   0.3333333  -0.1924501  -0.1053868), wk =   0.0370370
        k(   36) = (   0.3333333  -0.1924501   0.1580802), wk =   0.0185185
        k(   37) = (  -0.5000000   0.2886751   0.0000000), wk =   0.0092593
        k(   38) = (  -0.5000000   0.2886751  -0.0526934), wk =   0.0185185
        k(   39) = (  -0.5000000   0.2886751  -0.1053868), wk =   0.0185185
        k(   40) = (  -0.5000000   0.2886751   0.1580802), wk =   0.0092593
        k(   41) = (  -0.1666667   0.2886751   0.0000000), wk =   0.0370370
        k(   42) = (  -0.1666667   0.2886751  -0.0526934), wk =   0.0740741
        k(   43) = (  -0.1666667   0.2886751  -0.1053868), wk =   0.0740741
        k(   44) = (  -0.1666667   0.2886751   0.1580802), wk =   0.0370370
        k(   45) = (  -0.1666667   0.4811252   0.0000000), wk =   0.0370370
        k(   46) = (   0.5000000  -0.0962250   0.0000000), wk =   0.0370370
        k(   47) = (  -0.1666667   0.4811252  -0.0526934), wk =   0.0740741
        k(   48) = (   0.5000000  -0.0962250  -0.0526934), wk =   0.0740741
        k(   49) = (  -0.1666667   0.4811252  -0.1053868), wk =   0.0740741
        k(   50) = (   0.5000000  -0.0962250  -0.1053868), wk =   0.0740741
        k(   51) = (  -0.1666667   0.4811252   0.1580802), wk =   0.0370370
        k(   52) = (   0.5000000  -0.0962250   0.1580802), wk =   0.0370370

     Dense  grid:    37479 G-vectors     FFT dimensions: (  30,  30,  96)

     Estimated max dynamical RAM per process >      74.27 MB

     Initial potential from superposition of free atoms

     starting charge   15.99989, renormalised to   16.00000
     Starting wfcs are   16 randomized atomic wfcs

     total cpu time spent up to now is        2.1 secs

     Self-consistent Calculation

     iteration #  1     ecut=   100.00 Ry     beta= 0.70
     Davidson diagonalization with overlap
     ethr =  1.00E-02,  avg # of iterations =  3.8

     total cpu time spent up to now is        7.2 secs

     total energy              =     -45.52305613 Ry
     Harris-Foulkes estimate   =     -45.79763881 Ry
     estimated scf accuracy    <       0.43409685 Ry

     iteration #  2     ecut=   100.00 Ry     beta= 0.70
     Davidson diagonalization with overlap
     ethr =  2.71E-03,  avg # of iterations =  2.5

     total cpu time spent up to now is       11.8 secs

     total energy              =     -45.59868592 Ry
     Harris-Foulkes estimate   =     -45.60028329 Ry
     estimated scf accuracy    <       0.00532563 Ry

     iteration #  3     ecut=   100.00 Ry     beta= 0.70
     Davidson diagonalization with overlap
     ethr =  3.33E-05,  avg # of iterations =  4.8

     total cpu time spent up to now is       17.3 secs

     total energy              =     -45.59924126 Ry
     Harris-Foulkes estimate   =     -45.59927220 Ry
     estimated scf accuracy    <       0.00030241 Ry

     iteration #  4     ecut=   100.00 Ry     beta= 0.70
     Davidson diagonalization with overlap
     ethr =  1.89E-06,  avg # of iterations =  2.3

     total cpu time spent up to now is       21.4 secs

     End of self-consistent calculation

          k = 0.0000 0.0000 0.0000 (  4721 PWs)   bands (ev):

   -14.0911 -13.9988  -2.9522  -2.0504   2.0593   2.0625   2.0636   2.0668
     8.1373  12.3810  13.4852  13.4908

          k = 0.0000 0.0000 0.0527 (  4721 PWs)   bands (ev):

   -14.0851 -14.0051  -2.8986  -2.1192   2.0596   2.0623   2.0639   2.0666
     8.3444  11.9031  13.4861  13.4917

          k = 0.0000 0.0000 0.1054 (  4721 PWs)   bands (ev):

   -14.0685 -14.0223  -2.7479  -2.2999   2.0601   2.0618   2.0645   2.0661
     8.9344  10.8895  13.4886  13.4941

          k = 0.0000 0.0000-0.1581 (  4702 PWs)   bands (ev):

   -14.0455 -14.0455  -2.5312  -2.5312   2.0609   2.0609   2.0652   2.0652
     9.8247   9.8248  13.4918  13.4920

          k = 0.0000 0.1925 0.0000 (  4725 PWs)   bands (ev):

   -13.4488 -13.3611  -2.1560  -1.2827  -0.1850  -0.1704   0.9197   0.9280
     8.9782  13.1038  13.4441  13.5124

          k = 0.0000 0.1925 0.0527 (  4704 PWs)   bands (ev):

   -13.4431 -13.3671  -2.1039  -1.3490  -0.1841  -0.1713   0.9203   0.9275
     9.1804  12.6368  13.4636  13.5105

          k = 0.0000 0.1925 0.1054 (  4709 PWs)   bands (ev):

   -13.4273 -13.3834  -1.9576  -1.5235  -0.1814  -0.1741   0.9218   0.9260
     9.7563  11.6586  13.4777  13.5023

          k = 0.0000 0.1925-0.1581 (  4706 PWs)   bands (ev):

   -13.4055 -13.4055  -1.7475  -1.7475  -0.1778  -0.1778   0.9239   0.9239
    10.6244  10.6244  13.4906  13.4906

          k = 0.0000 0.3849 0.0000 (  4697 PWs)   bands (ev):

   -11.5516 -11.4770  -4.4180  -4.3835  -0.7031  -0.6920   0.1301   0.8913
     9.9267  10.3080  11.4857  12.8090

          k = 0.0000 0.3849 0.0527 (  4696 PWs)   bands (ev):

   -11.5467 -11.4821  -4.4157  -4.3858  -0.7023  -0.6928   0.1763   0.8346
     9.9424  10.2743  11.6835  12.8138

          k = 0.0000 0.3849 0.1054 (  4688 PWs)   bands (ev):

   -11.5332 -11.4959  -4.4094  -4.3922  -0.7004  -0.6948   0.3054   0.6844
     9.9962  10.1899  12.2208  12.8215

          k = 0.0000 0.3849-0.1581 (  4690 PWs)   bands (ev):

   -11.5147 -11.5147  -4.4008  -4.4008  -0.6976  -0.6976   0.4897   0.4897
    10.0863  10.0863  12.7676  12.7676

          k = 0.0000-0.5774 0.0000 (  4664 PWs)   bands (ev):

    -8.8374  -8.8063  -8.0367  -8.0124  -1.3414  -1.3297   2.6414   2.9316
     6.6523   7.0301  12.4759  12.6008

          k = 0.0000-0.5774 0.0527 (  4670 PWs)   bands (ev):

    -8.8352  -8.8082  -8.0353  -8.0142  -1.3406  -1.3306   2.6630   2.9151
     6.6647   6.9921  12.4841  12.5923

          k = 0.0000-0.5774 0.1054 (  4696 PWs)   bands (ev):

    -8.8293  -8.8137  -8.0313  -8.0191  -1.3386  -1.3329   2.7208   2.8670
     6.7085   6.8977  12.5067  12.5692

          k = 0.0000-0.5774-0.1581 (  4688 PWs)   bands (ev):

    -8.8213  -8.8213  -8.0254  -8.0254  -1.3356  -1.3356   2.7963   2.7963
     6.7906   6.7906  12.5378  12.5378

          k = 0.1667 0.2887 0.0000 (  4717 PWs)   bands (ev):

   -12.1793 -12.1005  -2.5504  -2.5376  -1.3340  -1.3246  -0.6043   0.2031
    10.6620  11.5287  11.7101  14.4295

          k = 0.1667 0.2887 0.0527 (  4696 PWs)   bands (ev):

   -12.1741 -12.1058  -2.5494  -2.5383  -1.3333  -1.3252  -0.5557   0.1424
    10.8511  11.5408  11.6980  14.0241

          k = 0.1667 0.2887 0.1054 (  4702 PWs)   bands (ev):

   -12.1599 -12.1205  -2.5471  -2.5407  -1.3317  -1.3270  -0.4195  -0.0178
    11.3887  11.5735  11.6652  13.1474

          k = 0.1667 0.2887-0.1581 (  4700 PWs)   bands (ev):

   -12.1403 -12.1403  -2.5439  -2.5439  -1.3294  -1.3294  -0.2245  -0.2245
    11.6182  11.6182  12.1977  12.1977

          k = 0.1667 0.4811 0.0000 (  4674 PWs)   bands (ev):

    -9.7268  -9.6646  -6.1529  -6.1128  -2.9495  -2.9271   2.1992   2.7926
     7.5380   7.8706  13.9544  15.0507

          k = 0.1667 0.4811 0.0527 (  4677 PWs)   bands (ev):

    -9.7227  -9.6689  -6.1503  -6.1155  -2.9480  -2.9286   2.2364   2.7501
     7.5566   7.8452  14.0933  15.0584

          k = 0.1667 0.4811 0.1054 (  4676 PWs)   bands (ev):

    -9.7114  -9.6803  -6.1429  -6.1229  -2.9440  -2.9327   2.3399   2.6362
     7.6107   7.7779  14.4699  15.0708

          k = 0.1667 0.4811-0.1581 (  4674 PWs)   bands (ev):

    -9.6960  -9.6960  -6.1330  -6.1330  -2.9384  -2.9384   2.4855   2.4855
     7.6910   7.6910  14.9369  14.9369

          k = 0.3333 0.5774 0.0000 (  4656 PWs)   bands (ev):

    -7.2360  -7.2108  -7.2107  -7.1856  -5.5297  -5.5297   4.9112   5.1686
     5.1687   5.4528  15.5480  15.5488

          k = 0.3333 0.5774 0.0527 (  4653 PWs)   bands (ev):

    -7.2327  -7.2107  -7.2106  -7.1890  -5.5298  -5.5298   4.9450   5.1699
     5.1701   5.4136  15.4084  15.4090

          k = 0.3333 0.5774 0.1054 (  4632 PWs)   bands (ev):

    -7.2235  -7.2106  -7.2105  -7.1983  -5.5300  -5.5299   5.0388   5.1729
     5.1729   5.3092  15.1944  15.1947

          k = 0.3333 0.5774-0.1581 (  4662 PWs)   bands (ev):

    -7.2115  -7.2115  -7.2100  -7.2100  -5.5301  -5.5301   5.1710   5.1710
     5.1745   5.1745  15.1066  15.1066

          k = 0.1667-0.0962 0.0000 (  4725 PWs)   bands (ev):

   -13.4489 -13.3611  -2.1560  -1.2826  -0.1871  -0.1726   0.9221   0.9304
     8.9782  13.1040  13.4463  13.5146

          k = 0.1667-0.0962-0.0527 (  4704 PWs)   bands (ev):

   -13.4431 -13.3671  -2.1038  -1.3489  -0.1862  -0.1735   0.9227   0.9299
     9.1804  12.6370  13.4658  13.5126

          k = 0.1667-0.0962-0.1054 (  4709 PWs)   bands (ev):

   -13.4273 -13.3834  -1.9575  -1.5234  -0.1836  -0.1763   0.9242   0.9285
     9.7564  11.6587  13.4799  13.5045

          k = 0.1667-0.0962 0.1581 (  4706 PWs)   bands (ev):

   -13.4055 -13.4055  -1.7474  -1.7474  -0.1799  -0.1799   0.9264   0.9264
    10.6245  10.6245  13.4927  13.4927

          k = 0.3333-0.1925 0.0000 (  4697 PWs)   bands (ev):

   -11.5517 -11.4771  -4.4191  -4.3847  -0.7014  -0.6903   0.1304   0.8918
     9.9255  10.3069  11.4857  12.8098

          k = 0.3333-0.1925-0.0527 (  4696 PWs)   bands (ev):

   -11.5468 -11.4821  -4.4169  -4.3870  -0.7007  -0.6911   0.1766   0.8350
     9.9413  10.2732  11.6835  12.8146

          k = 0.3333-0.1925-0.1054 (  4688 PWs)   bands (ev):

   -11.5333 -11.4960  -4.4105  -4.3933  -0.6987  -0.6932   0.3058   0.6848
     9.9950  10.1888  12.2208  12.8223

          k = 0.3333-0.1925 0.1581 (  4690 PWs)   bands (ev):

   -11.5147 -11.5147  -4.4019  -4.4019  -0.6959  -0.6959   0.4901   0.4901
    10.0852  10.0852  12.7683  12.7683

          k =-0.5000 0.2887 0.0000 (  4664 PWs)   bands (ev):

    -8.8367  -8.8056  -8.0383  -8.0140  -1.3399  -1.3282   2.6429   2.9330
     6.6501   7.0275  12.4765  12.6014

          k =-0.5000 0.2887-0.0527 (  4670 PWs)   bands (ev):

    -8.8345  -8.8075  -8.0369  -8.0159  -1.3392  -1.3291   2.6646   2.9165
     6.6625   6.9895  12.4847  12.5929

          k =-0.5000 0.2887-0.1054 (  4696 PWs)   bands (ev):

    -8.8285  -8.8129  -8.0330  -8.0208  -1.3371  -1.3314   2.7223   2.8685
     6.7062   6.8952  12.5073  12.5698

          k =-0.5000 0.2887 0.1581 (  4688 PWs)   bands (ev):

    -8.8206  -8.8206  -8.0271  -8.0271  -1.3342  -1.3342   2.7978   2.7978
     6.7882   6.7882  12.5384  12.5384

          k =-0.1667 0.2887 0.0000 (  4717 PWs)   bands (ev):

   -12.1794 -12.1005  -2.5523  -2.5395  -1.3318  -1.3224  -0.6042   0.2033
    10.6620  11.5276  11.7092  14.4300

          k =-0.1667 0.2887-0.0527 (  4696 PWs)   bands (ev):

   -12.1742 -12.1059  -2.5514  -2.5403  -1.3312  -1.3230  -0.5555   0.1426
    10.8511  11.5397  11.6970  14.0245

          k =-0.1667 0.2887-0.1054 (  4702 PWs)   bands (ev):

   -12.1600 -12.1205  -2.5490  -2.5427  -1.3295  -1.3248  -0.4194  -0.0175
    11.3887  11.5725  11.6643  13.1475

          k =-0.1667 0.2887 0.1581 (  4700 PWs)   bands (ev):

   -12.1403 -12.1403  -2.5459  -2.5459  -1.3272  -1.3272  -0.2244  -0.2244
    11.6172  11.6172  12.1978  12.1978

          k =-0.1667 0.4811 0.0000 (  4674 PWs)   bands (ev):

    -9.7269  -9.6647  -6.1531  -6.1130  -2.9492  -2.9268   2.1995   2.7929
     7.5374   7.8699  13.9544  15.0511

          k = 0.5000-0.0962 0.0000 (  4674 PWs)   bands (ev):

    -9.7269  -9.6647  -6.1540  -6.1139  -2.9481  -2.9256   2.2000   2.7936
     7.5361   7.8689  13.9543  15.0518

          k =-0.1667 0.4811-0.0527 (  4677 PWs)   bands (ev):

    -9.7228  -9.6689  -6.1504  -6.1157  -2.9477  -2.9283   2.2367   2.7504
     7.5560   7.8445  14.0934  15.0588

          k = 0.5000-0.0962-0.0527 (  4677 PWs)   bands (ev):

    -9.7228  -9.6689  -6.1514  -6.1166  -2.9466  -2.9271   2.2372   2.7511
     7.5547   7.8435  14.0933  15.0595

          k =-0.1667 0.4811-0.1054 (  4676 PWs)   bands (ev):

    -9.7115  -9.6804  -6.1431  -6.1231  -2.9437  -2.9324   2.3402   2.6365
     7.6100   7.7772  14.4702  15.0714

          k = 0.5000-0.0962-0.1054 (  4676 PWs)   bands (ev):

    -9.7115  -9.6804  -6.1440  -6.1240  -2.9425  -2.9312   2.3408   2.6371
     7.6088   7.7761  14.4701  15.0720

          k =-0.1667 0.4811 0.1581 (  4674 PWs)   bands (ev):

    -9.6960  -9.6960  -6.1331  -6.1331  -2.9381  -2.9381   2.4858   2.4858
     7.6903   7.6903  14.9377  14.9377

          k = 0.5000-0.0962 0.1581 (  4674 PWs)   bands (ev):

    -9.6960  -9.6960  -6.1341  -6.1341  -2.9369  -2.9369   2.4864   2.4864
     7.6892   7.6892  14.9377  14.9377

     the Fermi energy is     5.1160 ev

!    total energy              =     -45.59925311 Ry
     Harris-Foulkes estimate   =     -45.59925293 Ry
     estimated scf accuracy    <       0.00000041 Ry

     The total energy is the sum of the following terms:

     one-electron contribution =     -23.96052697 Ry
     hartree contribution      =      18.72791273 Ry
     xc contribution           =     -13.84000049 Ry
     ewald contribution        =     -26.50952826 Ry
     smearing contrib. (-TS)   =      -0.01711013 Ry

     convergence has been achieved in   4 iterations

     init_run     :      5.20s CPU      2.09s WALL (       1 calls)
     electrons    :     53.98s CPU     19.28s WALL (       1 calls)

     Called by init_run:
     wfcinit      :      5.11s CPU      1.98s WALL (       1 calls)
     potinit      :      0.02s CPU      0.01s WALL (       1 calls)
     hinit0       :      0.08s CPU      0.08s WALL (       1 calls)

     Called by electrons:
     c_bands      :     44.83s CPU     15.96s WALL (       4 calls)
     sum_band     :      8.94s CPU      3.28s WALL (       4 calls)
     v_of_rho     :      0.08s CPU      0.02s WALL (       5 calls)
     mix_rho      :      0.09s CPU      0.02s WALL (       4 calls)

     Called by c_bands:
     init_us_2    :      0.39s CPU      0.20s WALL (     468 calls)
     cegterg      :     43.91s CPU     15.66s WALL (     208 calls)

     Called by sum_band:

     Called by *egterg:
     h_psi        :     42.03s CPU     15.03s WALL (     958 calls)
     g_psi        :      0.73s CPU      0.24s WALL (     698 calls)
     cdiaghg      :      0.84s CPU      0.20s WALL (     906 calls)

     Called by h_psi:
     h_psi:pot    :     41.14s CPU     14.65s WALL (     958 calls)
     h_psi:calbec :      0.20s CPU      0.08s WALL (     958 calls)
     vloc_psi     :     40.78s CPU     14.50s WALL (     958 calls)
     add_vuspsi   :      0.16s CPU      0.06s WALL (     958 calls)

     General routines
     calbec       :      0.20s CPU      0.08s WALL (     958 calls)
     fft          :      0.00s CPU      0.01s WALL (      14 calls)
     ffts         :      0.00s CPU      0.00s WALL (       4 calls)
     fftw         :     13.19s CPU      3.77s WALL (   17974 calls)

     Parallel routines

     PWSCF        :     59.25s CPU     21.43s WALL


   This run was terminated on:   0:29:12  19Aug2023            

=------------------------------------------------------------------------------=
   JOB DONE.
=------------------------------------------------------------------------------=
