
     Program PWSCF v.6.4.1 starts on 19Aug2023 at  0:29:12 

     This program is part of the open-source Quantum ESPRESSO suite
     for quantum simulation of materials; please cite
         "P. Giannozzi et al., J. Phys.:Condens. Matter 21 395502 (2009);
         "P. Giannozzi et al., J. Phys.:Condens. Matter 29 465901 (2017);
          URL http://www.quantum-espresso.org", 
     in publications or presentations arising from this work. More details at
     http://www.quantum-espresso.org/quote

     Parallel version (MPI & OpenMP), running on      16 processor cores
     Number of MPI processes:                 1
     Threads/MPI process:                    16

     MPI processes distributed on     1 nodes
     Waiting for input...
     Reading input from standard input

     Current dimensions of program PWSCF are:
     Max number of different atomic species (ntypx) = 10
     Max number of k-points (npk) =  40000
     Max angular momentum in pseudopotentials (lmaxx) =  3

     Subspace diagonalization in iterative solution of the eigenvalue problem:
     a serial algorithm will be used


     G-vector sticks info
     --------------------
     sticks:   dense  smooth     PW     G-vecs:    dense   smooth      PW
     Sum         595     595    169                37479    37479    5931



     bravais-lattice index     =            4
     lattice parameter (alat)  =       4.6620  a.u.
     unit-cell volume          =     277.5410 (a.u.)^3
     number of atoms/cell      =            4
     number of atomic types    =            1
     number of electrons       =        16.00
     number of Kohn-Sham states=           12
     kinetic-energy cutoff     =     100.0000  Ry
     charge density cutoff     =     400.0000  Ry
     convergence threshold     =      1.0E-06
     mixing beta               =       0.7000
     number of iterations used =            8  plain     mixing
     Exchange-correlation      = SLA PZ NOGX NOGC ( 1  1  0  0 0 0)

     celldm(1)=   4.661954  celldm(2)=   0.000000  celldm(3)=   3.162951
     celldm(4)=   0.000000  celldm(5)=   0.000000  celldm(6)=   0.000000

     crystal axes: (cart. coord. in units of alat)
               a(1) = (   1.000000   0.000000   0.000000 )  
               a(2) = (  -0.500000   0.866025   0.000000 )  
               a(3) = (   0.000000   0.000000   3.162951 )  

     reciprocal axes: (cart. coord. in units 2 pi/alat)
               b(1) = (  1.000000  0.577350 -0.000000 )  
               b(2) = (  0.000000  1.154701  0.000000 )  
               b(3) = (  0.000000 -0.000000  0.316160 )  


     PseudoPot. # 1 for C  read from file:
     .\C.pz-vbc.UPF
     MD5 check sum: f697e42eaa1e52b77fcf7925dd36a1dd
     Pseudo is Norm-conserving, Zval =  4.0
     Generated by new atomic code, or converted to UPF format
     Using radial grid of  269 points,  1 beta functions with: 
                l(1) =   0

     atomic species   valence    mass     pseudopotential
        C              4.00    12.01100     C ( 1.00)

      8 Sym. Ops., with inversion, found ( 4 have fractional translation)



   Cartesian axes

     site n.     atom                  positions (alat units)
         1           C   tau(   1) = (   0.0000000   0.0000000   0.7907377  )
         2           C   tau(   2) = (   0.0000000   0.0000000   2.3722132  )
         3           C   tau(   3) = (  -0.0000500   0.5773791   0.7907377  )
         4           C   tau(   4) = (   0.5000500   0.2886463   2.3722132  )

     number of k points=   105  gaussian smearing, width (Ry)=  0.1000

     Number of k-points >= 100: set verbosity='high' to print them.

     Dense  grid:    37479 G-vectors     FFT dimensions: (  30,  30,  96)

     Estimated max dynamical RAM per process >     119.76 MB

     Initial potential from superposition of free atoms

     starting charge   15.99989, renormalised to   16.00000
     Starting wfcs are   16 randomized atomic wfcs

     total cpu time spent up to now is        4.0 secs

     Self-consistent Calculation

     iteration #  1     ecut=   100.00 Ry     beta= 0.70
     Davidson diagonalization with overlap
     ethr =  1.00E-02,  avg # of iterations =  3.3

     total cpu time spent up to now is       14.3 secs

     total energy              =     -45.52350610 Ry
     Harris-Foulkes estimate   =     -45.79784160 Ry
     estimated scf accuracy    <       0.43362232 Ry

     iteration #  2     ecut=   100.00 Ry     beta= 0.70
     Davidson diagonalization with overlap
     ethr =  2.71E-03,  avg # of iterations =  2.7

     total cpu time spent up to now is       23.6 secs

     total energy              =     -45.59860653 Ry
     Harris-Foulkes estimate   =     -45.60019772 Ry
     estimated scf accuracy    <       0.00532673 Ry

     iteration #  3     ecut=   100.00 Ry     beta= 0.70
     Davidson diagonalization with overlap
     ethr =  3.33E-05,  avg # of iterations =  4.8

     total cpu time spent up to now is       34.1 secs

     total energy              =     -45.59910449 Ry
     Harris-Foulkes estimate   =     -45.59913587 Ry
     estimated scf accuracy    <       0.00030551 Ry

     iteration #  4     ecut=   100.00 Ry     beta= 0.70
     Davidson diagonalization with overlap
     ethr =  1.91E-06,  avg # of iterations =  2.7

     total cpu time spent up to now is       42.2 secs

     End of self-consistent calculation

     Number of k-points >= 100: set verbosity='high' to print the bands.

     the Fermi energy is     5.0944 ev

!    total energy              =     -45.59911673 Ry
     Harris-Foulkes estimate   =     -45.59911657 Ry
     estimated scf accuracy    <       0.00000042 Ry

     The total energy is the sum of the following terms:

     one-electron contribution =     -23.96152559 Ry
     hartree contribution      =      18.72822752 Ry
     xc contribution           =     -13.84006427 Ry
     ewald contribution        =     -26.50952826 Ry
     smearing contrib. (-TS)   =      -0.01622613 Ry

     convergence has been achieved in   4 iterations

     init_run     :      9.66s CPU      3.98s WALL (       1 calls)
     electrons    :    110.75s CPU     38.18s WALL (       1 calls)

     Called by init_run:
     wfcinit      :      9.53s CPU      3.86s WALL (       1 calls)
     potinit      :      0.02s CPU      0.01s WALL (       1 calls)
     hinit0       :      0.11s CPU      0.10s WALL (       1 calls)

     Called by electrons:
     c_bands      :     92.17s CPU     31.48s WALL (       4 calls)
     sum_band     :     18.39s CPU      6.66s WALL (       4 calls)
     v_of_rho     :      0.08s CPU      0.02s WALL (       5 calls)
     mix_rho      :      0.09s CPU      0.02s WALL (       4 calls)

     Called by c_bands:
     init_us_2    :      1.27s CPU      0.41s WALL (     945 calls)
     cegterg      :     90.28s CPU     30.90s WALL (     420 calls)

     Called by sum_band:

     Called by *egterg:
     h_psi        :     83.98s CPU     29.67s WALL (    1946 calls)
     g_psi        :      1.64s CPU      0.45s WALL (    1421 calls)
     cdiaghg      :      1.44s CPU      0.42s WALL (    1841 calls)

     Called by h_psi:
     h_psi:pot    :     81.38s CPU     28.89s WALL (    1946 calls)
     h_psi:calbec :      0.45s CPU      0.12s WALL (    1946 calls)
     vloc_psi     :     80.52s CPU     28.67s WALL (    1946 calls)
     add_vuspsi   :      0.39s CPU      0.09s WALL (    1946 calls)

     General routines
     calbec       :      0.44s CPU      0.11s WALL (    1946 calls)
     fft          :      0.00s CPU      0.01s WALL (      14 calls)
     ffts         :      0.00s CPU      0.00s WALL (       4 calls)
     fftw         :     23.00s CPU      6.68s WALL (   36414 calls)

     Parallel routines

     PWSCF        :   2m 0.45s CPU     42.23s WALL


   This run was terminated on:   0:29:55  19Aug2023            

=------------------------------------------------------------------------------=
   JOB DONE.
=------------------------------------------------------------------------------=
