
     Program PWSCF v.6.4.1 starts on 14Aug2023 at 12:19:17 

     This program is part of the open-source Quantum ESPRESSO suite
     for quantum simulation of materials; please cite
         "P. Giannozzi et al., J. Phys.:Condens. Matter 21 395502 (2009);
         "P. Giannozzi et al., J. Phys.:Condens. Matter 29 465901 (2017);
          URL http://www.quantum-espresso.org", 
     in publications or presentations arising from this work. More details at
     http://www.quantum-espresso.org/quote

     Parallel version (MPI & OpenMP), running on      16 processor cores
     Number of MPI processes:                 1
     Threads/MPI process:                    16

     MPI processes distributed on     1 nodes
     Waiting for input...
     Reading input from standard input

     Current dimensions of program PWSCF are:
     Max number of different atomic species (ntypx) = 10
     Max number of k-points (npk) =  40000
     Max angular momentum in pseudopotentials (lmaxx) =  3

     Subspace diagonalization in iterative solution of the eigenvalue problem:
     a serial algorithm will be used


     G-vector sticks info
     --------------------
     sticks:   dense  smooth     PW     G-vecs:    dense   smooth      PW
     Sum          61      61     19                 1329     1329     303



     bravais-lattice index     =            4
     lattice parameter (alat)  =       4.6620  a.u.
     unit-cell volume          =     308.9124 (a.u.)^3
     number of atoms/cell      =            4
     number of atomic types    =            1
     number of electrons       =        16.00
     number of Kohn-Sham states=            8
     kinetic-energy cutoff     =      10.0000  Ry
     charge density cutoff     =      40.0000  Ry
     convergence threshold     =      1.0E-06
     mixing beta               =       0.7000
     number of iterations used =            8  plain     mixing
     Exchange-correlation      = SLA PZ NOGX NOGC ( 1  1  0  0 0 0)

     celldm(1)=   4.661954  celldm(2)=   0.000000  celldm(3)=   3.520470
     celldm(4)=   0.000000  celldm(5)=   0.000000  celldm(6)=   0.000000

     crystal axes: (cart. coord. in units of alat)
               a(1) = (   1.000000   0.000000   0.000000 )  
               a(2) = (  -0.500000   0.866025   0.000000 )  
               a(3) = (   0.000000   0.000000   3.520470 )  

     reciprocal axes: (cart. coord. in units 2 pi/alat)
               b(1) = (  1.000000  0.577350 -0.000000 )  
               b(2) = (  0.000000  1.154701  0.000000 )  
               b(3) = (  0.000000 -0.000000  0.284053 )  


     PseudoPot. # 1 for C  read from file:
     .\C.pz-vbc.UPF
     MD5 check sum: f697e42eaa1e52b77fcf7925dd36a1dd
     Pseudo is Norm-conserving, Zval =  4.0
     Generated by new atomic code, or converted to UPF format
     Using radial grid of  269 points,  1 beta functions with: 
                l(1) =   0

     atomic species   valence    mass     pseudopotential
        C              4.00    12.01100     C ( 1.00)

      8 Sym. Ops., with inversion, found ( 4 have fractional translation)



   Cartesian axes

     site n.     atom                  positions (alat units)
         1           C   tau(   1) = (   0.0000000   0.0000000   2.6403527  )
         2           C   tau(   2) = (   0.0000000   0.0000000   0.8801176  )
         3           C   tau(   3) = (  -0.0000500   0.5773791   2.6403527  )
         4           C   tau(   4) = (   0.5000500   0.2886463   0.8801176  )

     number of k points=     6
                       cart. coord. in units 2pi/alat
        k(    1) = (   0.0000000   0.0000000   0.0000000), wk =   0.2500000
        k(    2) = (   0.0000000   0.0000000  -0.1420265), wk =   0.2500000
        k(    3) = (   0.0000000  -0.5773503   0.0000000), wk =   0.5000000
        k(    4) = (   0.0000000  -0.5773503  -0.1420265), wk =   0.5000000
        k(    5) = (  -0.5000000   0.2886751   0.0000000), wk =   0.2500000
        k(    6) = (  -0.5000000   0.2886751   0.1420265), wk =   0.2500000

     Dense  grid:     1329 G-vectors     FFT dimensions: (   9,   9,  36)

     Estimated max dynamical RAM per process >       1.12 MB

     Initial potential from superposition of free atoms

     starting charge   15.99989, renormalised to   16.00000

     negative rho (up, down):  1.146E-03 0.000E+00
     Starting wfcs are   16 randomized atomic wfcs

     total cpu time spent up to now is        0.9 secs

     Self-consistent Calculation

     iteration #  1     ecut=    10.00 Ry     beta= 0.70
     Davidson diagonalization with overlap
     ethr =  1.00E-02,  avg # of iterations =  2.0

     negative rho (up, down):  1.836E-04 0.000E+00

     total cpu time spent up to now is        1.1 secs

     total energy              =     -41.74584704 Ry
     Harris-Foulkes estimate   =     -41.80576898 Ry
     estimated scf accuracy    <       0.29297689 Ry

     iteration #  2     ecut=    10.00 Ry     beta= 0.70
     Davidson diagonalization with overlap
     ethr =  1.83E-03,  avg # of iterations =  1.0

     total cpu time spent up to now is        1.3 secs

     total energy              =     -41.74911147 Ry
     Harris-Foulkes estimate   =     -41.75233755 Ry
     estimated scf accuracy    <       0.02250569 Ry

     iteration #  3     ecut=    10.00 Ry     beta= 0.70
     Davidson diagonalization with overlap
     ethr =  1.41E-04,  avg # of iterations =  1.0

     total cpu time spent up to now is        1.5 secs

     total energy              =     -41.74933845 Ry
     Harris-Foulkes estimate   =     -41.74934333 Ry
     estimated scf accuracy    <       0.00008019 Ry

     iteration #  4     ecut=    10.00 Ry     beta= 0.70
     Davidson diagonalization with overlap
     ethr =  5.01E-07,  avg # of iterations =  3.2

     total cpu time spent up to now is        1.8 secs

     total energy              =     -41.74939644 Ry
     Harris-Foulkes estimate   =     -41.74939789 Ry
     estimated scf accuracy    <       0.00000233 Ry

     iteration #  5     ecut=    10.00 Ry     beta= 0.70
     Davidson diagonalization with overlap
     ethr =  1.46E-08,  avg # of iterations =  2.7

     total cpu time spent up to now is        2.1 secs

     End of self-consistent calculation

          k = 0.0000 0.0000 0.0000 (   179 PWs)   bands (ev):

   -15.5965 -15.4872  -2.3291  -2.1217   4.1031   4.1079   4.4681   4.4733

          k = 0.0000 0.0000-0.1420 (   160 PWs)   bands (ev):

   -15.4962 -15.4962  -1.9962  -1.9962   4.6706   4.6706   4.6757   4.6757

          k = 0.0000-0.5774 0.0000 (   166 PWs)   bands (ev):

   -10.0761 -10.0103  -8.4454  -8.3721   0.1702   0.1984   3.6220   3.6259

          k = 0.0000-0.5774-0.1420 (   164 PWs)   bands (ev):

   -10.0532 -10.0532  -8.3534  -8.3534   0.1932   0.1932   3.8312   3.8312

          k =-0.5000 0.2887 0.0000 (   166 PWs)   bands (ev):

   -10.0750 -10.0092  -8.4479  -8.3745   0.1719   0.2001   3.6235   3.6272

          k =-0.5000 0.2887 0.1420 (   164 PWs)   bands (ev):

   -10.0521 -10.0521  -8.3558  -8.3558   0.1948   0.1948   3.8326   3.8326

     highest occupied level (ev):     4.6757

!    total energy              =     -41.74939708 Ry
     Harris-Foulkes estimate   =     -41.74939712 Ry
     estimated scf accuracy    <       0.00000007 Ry

     The total energy is the sum of the following terms:

     one-electron contribution =     -29.11783045 Ry
     hartree contribution      =      21.50669402 Ry
     xc contribution           =     -13.56388811 Ry
     ewald contribution        =     -20.57437254 Ry

     convergence has been achieved in   5 iterations

     init_run     :      0.38s CPU      0.16s WALL (       1 calls)
     electrons    :      3.38s CPU      1.23s WALL (       1 calls)

     Called by init_run:
     wfcinit      :      0.34s CPU      0.14s WALL (       1 calls)
     potinit      :      0.00s CPU      0.01s WALL (       1 calls)
     hinit0       :      0.03s CPU      0.01s WALL (       1 calls)

     Called by electrons:
     c_bands      :      2.81s CPU      0.96s WALL (       5 calls)
     sum_band     :      0.55s CPU      0.26s WALL (       5 calls)
     v_of_rho     :      0.02s CPU      0.01s WALL (       6 calls)
     mix_rho      :      0.00s CPU      0.00s WALL (       5 calls)

     Called by c_bands:
     init_us_2    :      0.06s CPU      0.03s WALL (      66 calls)
     cegterg      :      2.78s CPU      0.93s WALL (      30 calls)

     Called by sum_band:

     Called by *egterg:
     h_psi        :      2.83s CPU      0.97s WALL (      95 calls)
     g_psi        :      0.08s CPU      0.01s WALL (      59 calls)
     cdiaghg      :      0.03s CPU      0.01s WALL (      89 calls)

     Called by h_psi:
     h_psi:pot    :      2.75s CPU      0.93s WALL (      95 calls)
     h_psi:calbec :      0.00s CPU      0.00s WALL (      95 calls)
     vloc_psi     :      2.73s CPU      0.93s WALL (      95 calls)
     add_vuspsi   :      0.02s CPU      0.00s WALL (      95 calls)

     General routines
     calbec       :      0.00s CPU      0.00s WALL (      95 calls)
     fft          :      0.03s CPU      0.00s WALL (      17 calls)
     ffts         :      0.00s CPU      0.00s WALL (       5 calls)
     fftw         :      0.09s CPU      0.04s WALL (    1658 calls)

     Parallel routines

     PWSCF        :      3.78s CPU      2.12s WALL


   This run was terminated on:  12:19:19  14Aug2023            

=------------------------------------------------------------------------------=
   JOB DONE.
=------------------------------------------------------------------------------=
