
     Program PWSCF v.6.4.1 starts on 14Aug2023 at 12:19:34 

     This program is part of the open-source Quantum ESPRESSO suite
     for quantum simulation of materials; please cite
         "P. Giannozzi et al., J. Phys.:Condens. Matter 21 395502 (2009);
         "P. Giannozzi et al., J. Phys.:Condens. Matter 29 465901 (2017);
          URL http://www.quantum-espresso.org", 
     in publications or presentations arising from this work. More details at
     http://www.quantum-espresso.org/quote

     Parallel version (MPI & OpenMP), running on      16 processor cores
     Number of MPI processes:                 1
     Threads/MPI process:                    16

     MPI processes distributed on     1 nodes
     Waiting for input...
     Reading input from standard input

     Current dimensions of program PWSCF are:
     Max number of different atomic species (ntypx) = 10
     Max number of k-points (npk) =  40000
     Max angular momentum in pseudopotentials (lmaxx) =  3

     Subspace diagonalization in iterative solution of the eigenvalue problem:
     a serial algorithm will be used


     G-vector sticks info
     --------------------
     sticks:   dense  smooth     PW     G-vecs:    dense   smooth      PW
     Sum         595     595    169                41835    41835    6525



     bravais-lattice index     =            4
     lattice parameter (alat)  =       4.6620  a.u.
     unit-cell volume          =     308.9124 (a.u.)^3
     number of atoms/cell      =            4
     number of atomic types    =            1
     number of electrons       =        16.00
     number of Kohn-Sham states=            8
     kinetic-energy cutoff     =     100.0000  Ry
     charge density cutoff     =     400.0000  Ry
     convergence threshold     =      1.0E-06
     mixing beta               =       0.7000
     number of iterations used =            8  plain     mixing
     Exchange-correlation      = SLA PZ NOGX NOGC ( 1  1  0  0 0 0)

     celldm(1)=   4.661954  celldm(2)=   0.000000  celldm(3)=   3.520470
     celldm(4)=   0.000000  celldm(5)=   0.000000  celldm(6)=   0.000000

     crystal axes: (cart. coord. in units of alat)
               a(1) = (   1.000000   0.000000   0.000000 )  
               a(2) = (  -0.500000   0.866025   0.000000 )  
               a(3) = (   0.000000   0.000000   3.520470 )  

     reciprocal axes: (cart. coord. in units 2 pi/alat)
               b(1) = (  1.000000  0.577350 -0.000000 )  
               b(2) = (  0.000000  1.154701  0.000000 )  
               b(3) = (  0.000000 -0.000000  0.284053 )  


     PseudoPot. # 1 for C  read from file:
     .\C.pz-vbc.UPF
     MD5 check sum: f697e42eaa1e52b77fcf7925dd36a1dd
     Pseudo is Norm-conserving, Zval =  4.0
     Generated by new atomic code, or converted to UPF format
     Using radial grid of  269 points,  1 beta functions with: 
                l(1) =   0

     atomic species   valence    mass     pseudopotential
        C              4.00    12.01100     C ( 1.00)

      8 Sym. Ops., with inversion, found ( 4 have fractional translation)



   Cartesian axes

     site n.     atom                  positions (alat units)
         1           C   tau(   1) = (   0.0000000   0.0000000   2.6403527  )
         2           C   tau(   2) = (   0.0000000   0.0000000   0.8801176  )
         3           C   tau(   3) = (  -0.0000500   0.5773791   2.6403527  )
         4           C   tau(   4) = (   0.5000500   0.2886463   0.8801176  )

     number of k points=     6
                       cart. coord. in units 2pi/alat
        k(    1) = (   0.0000000   0.0000000   0.0000000), wk =   0.2500000
        k(    2) = (   0.0000000   0.0000000  -0.1420265), wk =   0.2500000
        k(    3) = (   0.0000000  -0.5773503   0.0000000), wk =   0.5000000
        k(    4) = (   0.0000000  -0.5773503  -0.1420265), wk =   0.5000000
        k(    5) = (  -0.5000000   0.2886751   0.0000000), wk =   0.2500000
        k(    6) = (  -0.5000000   0.2886751   0.1420265), wk =   0.2500000

     Dense  grid:    41835 G-vectors     FFT dimensions: (  30,  30, 108)

     Estimated max dynamical RAM per process >      34.00 MB

     Initial potential from superposition of free atoms

     starting charge   15.99989, renormalised to   16.00000
     Starting wfcs are   16 randomized atomic wfcs

     total cpu time spent up to now is        0.4 secs

     Self-consistent Calculation

     iteration #  1     ecut=   100.00 Ry     beta= 0.70
     Davidson diagonalization with overlap
     ethr =  1.00E-02,  avg # of iterations =  2.3

     total cpu time spent up to now is        0.7 secs

     total energy              =     -45.19216407 Ry
     Harris-Foulkes estimate   =     -45.52902949 Ry
     estimated scf accuracy    <       0.53295243 Ry

     iteration #  2     ecut=   100.00 Ry     beta= 0.70
     Davidson diagonalization with overlap
     ethr =  3.33E-03,  avg # of iterations =  2.0

     total cpu time spent up to now is        1.1 secs

     total energy              =     -45.28165467 Ry
     Harris-Foulkes estimate   =     -45.28281885 Ry
     estimated scf accuracy    <       0.00604481 Ry

     iteration #  3     ecut=   100.00 Ry     beta= 0.70
     Davidson diagonalization with overlap
     ethr =  3.78E-05,  avg # of iterations =  2.0

     total cpu time spent up to now is        1.4 secs

     total energy              =     -45.28221291 Ry
     Harris-Foulkes estimate   =     -45.28222944 Ry
     estimated scf accuracy    <       0.00038964 Ry

     iteration #  4     ecut=   100.00 Ry     beta= 0.70
     Davidson diagonalization with overlap
     ethr =  2.44E-06,  avg # of iterations =  2.2

     total cpu time spent up to now is        1.7 secs

     total energy              =     -45.28225212 Ry
     Harris-Foulkes estimate   =     -45.28225226 Ry
     estimated scf accuracy    <       0.00000221 Ry

     iteration #  5     ecut=   100.00 Ry     beta= 0.70
     Davidson diagonalization with overlap
     ethr =  1.38E-08,  avg # of iterations =  3.5

     total cpu time spent up to now is        2.2 secs

     End of self-consistent calculation

          k = 0.0000 0.0000 0.0000 (  5279 PWs)   bands (ev):

   -14.7661 -14.7313  -3.5363  -3.0623   1.4704   1.4714   1.4748   1.4758

          k = 0.0000 0.0000-0.1420 (  5224 PWs)   bands (ev):

   -14.7488 -14.7488  -3.3095  -3.3095   1.4710   1.4710   1.4755   1.4755

          k = 0.0000-0.5774 0.0000 (  5204 PWs)   bands (ev):

    -9.4906  -9.4796  -8.7179  -8.7091  -1.9616  -1.9580   1.9754   2.1161

          k = 0.0000-0.5774-0.1420 (  5240 PWs)   bands (ev):

    -9.4851  -9.4851  -8.7137  -8.7137  -1.9599  -1.9599   2.0478   2.0478

          k =-0.5000 0.2887 0.0000 (  5204 PWs)   bands (ev):

    -9.4897  -9.4788  -8.7197  -8.7110  -1.9601  -1.9565   1.9769   2.1176

          k =-0.5000 0.2887 0.1420 (  5240 PWs)   bands (ev):

    -9.4842  -9.4842  -8.7155  -8.7155  -1.9584  -1.9584   2.0493   2.0493

     highest occupied level (ev):     2.1176

!    total energy              =     -45.28225493 Ry
     Harris-Foulkes estimate   =     -45.28225501 Ry
     estimated scf accuracy    <       0.00000014 Ry

     The total energy is the sum of the following terms:

     one-electron contribution =     -34.67114969 Ry
     hartree contribution      =      23.88975668 Ry
     xc contribution           =     -13.92648936 Ry
     ewald contribution        =     -20.57437255 Ry

     convergence has been achieved in   5 iterations

     init_run     :      0.73s CPU      0.32s WALL (       1 calls)
     electrons    :      5.02s CPU      1.78s WALL (       1 calls)

     Called by init_run:
     wfcinit      :      0.66s CPU      0.23s WALL (       1 calls)
     potinit      :      0.00s CPU      0.01s WALL (       1 calls)
     hinit0       :      0.08s CPU      0.07s WALL (       1 calls)

     Called by electrons:
     c_bands      :      3.80s CPU      1.39s WALL (       5 calls)
     sum_band     :      0.95s CPU      0.32s WALL (       5 calls)
     v_of_rho     :      0.02s CPU      0.02s WALL (       6 calls)
     mix_rho      :      0.25s CPU      0.05s WALL (       5 calls)

     Called by c_bands:
     init_us_2    :      0.06s CPU      0.02s WALL (      66 calls)
     cegterg      :      3.78s CPU      1.36s WALL (      30 calls)

     Called by sum_band:

     Called by *egterg:
     h_psi        :      3.86s CPU      1.36s WALL (     108 calls)
     g_psi        :      0.08s CPU      0.02s WALL (      72 calls)
     cdiaghg      :      0.03s CPU      0.01s WALL (     102 calls)

     Called by h_psi:
     h_psi:pot    :      3.67s CPU      1.32s WALL (     108 calls)
     h_psi:calbec :      0.05s CPU      0.01s WALL (     108 calls)
     vloc_psi     :      3.61s CPU      1.30s WALL (     108 calls)
     add_vuspsi   :      0.02s CPU      0.01s WALL (     108 calls)

     General routines
     calbec       :      0.05s CPU      0.01s WALL (     108 calls)
     fft          :      0.00s CPU      0.01s WALL (      17 calls)
     ffts         :      0.00s CPU      0.00s WALL (       5 calls)
     fftw         :      1.30s CPU      0.37s WALL (    1786 calls)

     Parallel routines

     PWSCF        :      5.75s CPU      2.16s WALL


   This run was terminated on:  12:19:36  14Aug2023            

=------------------------------------------------------------------------------=
   JOB DONE.
=------------------------------------------------------------------------------=
