
     Program PWSCF v.6.4.1 starts on 14Aug2023 at 12:19:36 

     This program is part of the open-source Quantum ESPRESSO suite
     for quantum simulation of materials; please cite
         "P. Giannozzi et al., J. Phys.:Condens. Matter 21 395502 (2009);
         "P. Giannozzi et al., J. Phys.:Condens. Matter 29 465901 (2017);
          URL http://www.quantum-espresso.org", 
     in publications or presentations arising from this work. More details at
     http://www.quantum-espresso.org/quote

     Parallel version (MPI & OpenMP), running on      16 processor cores
     Number of MPI processes:                 1
     Threads/MPI process:                    16

     MPI processes distributed on     1 nodes
     Waiting for input...
     Reading input from standard input

     Current dimensions of program PWSCF are:
     Max number of different atomic species (ntypx) = 10
     Max number of k-points (npk) =  40000
     Max angular momentum in pseudopotentials (lmaxx) =  3

     Subspace diagonalization in iterative solution of the eigenvalue problem:
     a serial algorithm will be used


     G-vector sticks info
     --------------------
     sticks:   dense  smooth     PW     G-vecs:    dense   smooth      PW
     Sum         661     661    199                48109    48109    7553



     bravais-lattice index     =            4
     lattice parameter (alat)  =       4.6620  a.u.
     unit-cell volume          =     308.9124 (a.u.)^3
     number of atoms/cell      =            4
     number of atomic types    =            1
     number of electrons       =        16.00
     number of Kohn-Sham states=            8
     kinetic-energy cutoff     =     110.0000  Ry
     charge density cutoff     =     440.0000  Ry
     convergence threshold     =      1.0E-06
     mixing beta               =       0.7000
     number of iterations used =            8  plain     mixing
     Exchange-correlation      = SLA PZ NOGX NOGC ( 1  1  0  0 0 0)

     celldm(1)=   4.661954  celldm(2)=   0.000000  celldm(3)=   3.520470
     celldm(4)=   0.000000  celldm(5)=   0.000000  celldm(6)=   0.000000

     crystal axes: (cart. coord. in units of alat)
               a(1) = (   1.000000   0.000000   0.000000 )  
               a(2) = (  -0.500000   0.866025   0.000000 )  
               a(3) = (   0.000000   0.000000   3.520470 )  

     reciprocal axes: (cart. coord. in units 2 pi/alat)
               b(1) = (  1.000000  0.577350 -0.000000 )  
               b(2) = (  0.000000  1.154701  0.000000 )  
               b(3) = (  0.000000 -0.000000  0.284053 )  


     PseudoPot. # 1 for C  read from file:
     .\C.pz-vbc.UPF
     MD5 check sum: f697e42eaa1e52b77fcf7925dd36a1dd
     Pseudo is Norm-conserving, Zval =  4.0
     Generated by new atomic code, or converted to UPF format
     Using radial grid of  269 points,  1 beta functions with: 
                l(1) =   0

     atomic species   valence    mass     pseudopotential
        C              4.00    12.01100     C ( 1.00)

      8 Sym. Ops., with inversion, found ( 4 have fractional translation)



   Cartesian axes

     site n.     atom                  positions (alat units)
         1           C   tau(   1) = (   0.0000000   0.0000000   2.6403527  )
         2           C   tau(   2) = (   0.0000000   0.0000000   0.8801176  )
         3           C   tau(   3) = (  -0.0000500   0.5773791   2.6403527  )
         4           C   tau(   4) = (   0.5000500   0.2886463   0.8801176  )

     number of k points=     6
                       cart. coord. in units 2pi/alat
        k(    1) = (   0.0000000   0.0000000   0.0000000), wk =   0.2500000
        k(    2) = (   0.0000000   0.0000000  -0.1420265), wk =   0.2500000
        k(    3) = (   0.0000000  -0.5773503   0.0000000), wk =   0.5000000
        k(    4) = (   0.0000000  -0.5773503  -0.1420265), wk =   0.5000000
        k(    5) = (  -0.5000000   0.2886751   0.0000000), wk =   0.2500000
        k(    6) = (  -0.5000000   0.2886751   0.1420265), wk =   0.2500000

     Dense  grid:    48109 G-vectors     FFT dimensions: (  32,  32, 120)

     Estimated max dynamical RAM per process >      39.89 MB

     Initial potential from superposition of free atoms

     starting charge   15.99989, renormalised to   16.00000
     Starting wfcs are   16 randomized atomic wfcs

     total cpu time spent up to now is        0.4 secs

     Self-consistent Calculation

     iteration #  1     ecut=   110.00 Ry     beta= 0.70
     Davidson diagonalization with overlap
     ethr =  1.00E-02,  avg # of iterations =  2.3

     total cpu time spent up to now is        0.8 secs

     total energy              =     -45.19204358 Ry
     Harris-Foulkes estimate   =     -45.52950988 Ry
     estimated scf accuracy    <       0.53405596 Ry

     iteration #  2     ecut=   110.00 Ry     beta= 0.70
     Davidson diagonalization with overlap
     ethr =  3.34E-03,  avg # of iterations =  2.0

     total cpu time spent up to now is        1.2 secs

     total energy              =     -45.28263106 Ry
     Harris-Foulkes estimate   =     -45.28378437 Ry
     estimated scf accuracy    <       0.00608991 Ry

     iteration #  3     ecut=   110.00 Ry     beta= 0.70
     Davidson diagonalization with overlap
     ethr =  3.81E-05,  avg # of iterations =  2.0

     total cpu time spent up to now is        1.5 secs

     total energy              =     -45.28321832 Ry
     Harris-Foulkes estimate   =     -45.28323216 Ry
     estimated scf accuracy    <       0.00038650 Ry

     iteration #  4     ecut=   110.00 Ry     beta= 0.70
     Davidson diagonalization with overlap
     ethr =  2.42E-06,  avg # of iterations =  2.3

     total cpu time spent up to now is        1.8 secs

     total energy              =     -45.28326608 Ry
     Harris-Foulkes estimate   =     -45.28326547 Ry
     estimated scf accuracy    <       0.00000273 Ry

     iteration #  5     ecut=   110.00 Ry     beta= 0.70
     Davidson diagonalization with overlap
     ethr =  1.71E-08,  avg # of iterations =  3.2

     total cpu time spent up to now is        2.3 secs

     End of self-consistent calculation

          k = 0.0000 0.0000 0.0000 (  6061 PWs)   bands (ev):

   -14.7656 -14.7308  -3.5365  -3.0626   1.4698   1.4707   1.4741   1.4751

          k = 0.0000 0.0000-0.1420 (  5982 PWs)   bands (ev):

   -14.7483 -14.7483  -3.3099  -3.3099   1.4702   1.4702   1.4746   1.4746

          k = 0.0000-0.5774 0.0000 (  6030 PWs)   bands (ev):

    -9.4903  -9.4793  -8.7180  -8.7093  -1.9619  -1.9585   1.9749   2.1156

          k = 0.0000-0.5774-0.1420 (  5992 PWs)   bands (ev):

    -9.4847  -9.4847  -8.7137  -8.7137  -1.9602  -1.9602   2.0474   2.0474

          k =-0.5000 0.2887 0.0000 (  6030 PWs)   bands (ev):

    -9.4895  -9.4785  -8.7197  -8.7110  -1.9604  -1.9570   1.9765   2.1171

          k =-0.5000 0.2887 0.1420 (  5992 PWs)   bands (ev):

    -9.4839  -9.4839  -8.7155  -8.7155  -1.9587  -1.9587   2.0489   2.0489

     highest occupied level (ev):     2.1171

!    total energy              =     -45.28326929 Ry
     Harris-Foulkes estimate   =     -45.28326937 Ry
     estimated scf accuracy    <       0.00000013 Ry

     The total energy is the sum of the following terms:

     one-electron contribution =     -34.67294959 Ry
     hartree contribution      =      23.89054079 Ry
     xc contribution           =     -13.92648794 Ry
     ewald contribution        =     -20.57437255 Ry

     convergence has been achieved in   5 iterations

     init_run     :      0.69s CPU      0.34s WALL (       1 calls)
     electrons    :      5.25s CPU      1.87s WALL (       1 calls)

     Called by init_run:
     wfcinit      :      0.61s CPU      0.24s WALL (       1 calls)
     potinit      :      0.00s CPU      0.01s WALL (       1 calls)
     hinit0       :      0.08s CPU      0.07s WALL (       1 calls)

     Called by electrons:
     c_bands      :      4.22s CPU      1.45s WALL (       5 calls)
     sum_band     :      0.84s CPU      0.33s WALL (       5 calls)
     v_of_rho     :      0.02s CPU      0.03s WALL (       6 calls)
     mix_rho      :      0.14s CPU      0.05s WALL (       5 calls)

     Called by c_bands:
     init_us_2    :      0.03s CPU      0.03s WALL (      66 calls)
     cegterg      :      4.09s CPU      1.41s WALL (      30 calls)

     Called by sum_band:

     Called by *egterg:
     h_psi        :      3.80s CPU      1.42s WALL (     107 calls)
     g_psi        :      0.05s CPU      0.02s WALL (      71 calls)
     cdiaghg      :      0.02s CPU      0.01s WALL (     101 calls)

     Called by h_psi:
     h_psi:pot    :      3.53s CPU      1.37s WALL (     107 calls)
     h_psi:calbec :      0.03s CPU      0.00s WALL (     107 calls)
     vloc_psi     :      3.50s CPU      1.36s WALL (     107 calls)
     add_vuspsi   :      0.00s CPU      0.01s WALL (     107 calls)

     General routines
     calbec       :      0.03s CPU      0.00s WALL (     107 calls)
     fft          :      0.00s CPU      0.01s WALL (      17 calls)
     ffts         :      0.00s CPU      0.00s WALL (       5 calls)
     fftw         :      1.38s CPU      0.47s WALL (    1786 calls)

     Parallel routines

     PWSCF        :      5.98s CPU      2.29s WALL


   This run was terminated on:  12:19:38  14Aug2023            

=------------------------------------------------------------------------------=
   JOB DONE.
=------------------------------------------------------------------------------=
