
     Program PWSCF v.6.4.1 starts on 14Aug2023 at 12:19:47 

     This program is part of the open-source Quantum ESPRESSO suite
     for quantum simulation of materials; please cite
         "P. Giannozzi et al., J. Phys.:Condens. Matter 21 395502 (2009);
         "P. Giannozzi et al., J. Phys.:Condens. Matter 29 465901 (2017);
          URL http://www.quantum-espresso.org", 
     in publications or presentations arising from this work. More details at
     http://www.quantum-espresso.org/quote

     Parallel version (MPI & OpenMP), running on      16 processor cores
     Number of MPI processes:                 1
     Threads/MPI process:                    16

     MPI processes distributed on     1 nodes
     Waiting for input...
     Reading input from standard input

     Current dimensions of program PWSCF are:
     Max number of different atomic species (ntypx) = 10
     Max number of k-points (npk) =  40000
     Max angular momentum in pseudopotentials (lmaxx) =  3

     Subspace diagonalization in iterative solution of the eigenvalue problem:
     a serial algorithm will be used


     G-vector sticks info
     --------------------
     sticks:   dense  smooth     PW     G-vecs:    dense   smooth      PW
     Sum         913     913    253                76687    76687   11613



     bravais-lattice index     =            4
     lattice parameter (alat)  =       4.6620  a.u.
     unit-cell volume          =     308.9124 (a.u.)^3
     number of atoms/cell      =            4
     number of atomic types    =            1
     number of electrons       =        16.00
     number of Kohn-Sham states=            8
     kinetic-energy cutoff     =     150.0000  Ry
     charge density cutoff     =     600.0000  Ry
     convergence threshold     =      1.0E-06
     mixing beta               =       0.7000
     number of iterations used =            8  plain     mixing
     Exchange-correlation      = SLA PZ NOGX NOGC ( 1  1  0  0 0 0)

     celldm(1)=   4.661954  celldm(2)=   0.000000  celldm(3)=   3.520470
     celldm(4)=   0.000000  celldm(5)=   0.000000  celldm(6)=   0.000000

     crystal axes: (cart. coord. in units of alat)
               a(1) = (   1.000000   0.000000   0.000000 )  
               a(2) = (  -0.500000   0.866025   0.000000 )  
               a(3) = (   0.000000   0.000000   3.520470 )  

     reciprocal axes: (cart. coord. in units 2 pi/alat)
               b(1) = (  1.000000  0.577350 -0.000000 )  
               b(2) = (  0.000000  1.154701  0.000000 )  
               b(3) = (  0.000000 -0.000000  0.284053 )  


     PseudoPot. # 1 for C  read from file:
     .\C.pz-vbc.UPF
     MD5 check sum: f697e42eaa1e52b77fcf7925dd36a1dd
     Pseudo is Norm-conserving, Zval =  4.0
     Generated by new atomic code, or converted to UPF format
     Using radial grid of  269 points,  1 beta functions with: 
                l(1) =   0

     atomic species   valence    mass     pseudopotential
        C              4.00    12.01100     C ( 1.00)

      8 Sym. Ops., with inversion, found ( 4 have fractional translation)



   Cartesian axes

     site n.     atom                  positions (alat units)
         1           C   tau(   1) = (   0.0000000   0.0000000   2.6403527  )
         2           C   tau(   2) = (   0.0000000   0.0000000   0.8801176  )
         3           C   tau(   3) = (  -0.0000500   0.5773791   2.6403527  )
         4           C   tau(   4) = (   0.5000500   0.2886463   0.8801176  )

     number of k points=     6
                       cart. coord. in units 2pi/alat
        k(    1) = (   0.0000000   0.0000000   0.0000000), wk =   0.2500000
        k(    2) = (   0.0000000   0.0000000  -0.1420265), wk =   0.2500000
        k(    3) = (   0.0000000  -0.5773503   0.0000000), wk =   0.5000000
        k(    4) = (   0.0000000  -0.5773503  -0.1420265), wk =   0.5000000
        k(    5) = (  -0.5000000   0.2886751   0.0000000), wk =   0.2500000
        k(    6) = (  -0.5000000   0.2886751   0.1420265), wk =   0.2500000

     Dense  grid:    76687 G-vectors     FFT dimensions: (  40,  40, 128)

     Estimated max dynamical RAM per process >      64.14 MB

     Initial potential from superposition of free atoms

     starting charge   15.99989, renormalised to   16.00000
     Starting wfcs are   16 randomized atomic wfcs

     total cpu time spent up to now is        0.5 secs

     Self-consistent Calculation

     iteration #  1     ecut=   150.00 Ry     beta= 0.70
     Davidson diagonalization with overlap
     ethr =  1.00E-02,  avg # of iterations =  3.0

     total cpu time spent up to now is        1.0 secs

     total energy              =     -45.19447844 Ry
     Harris-Foulkes estimate   =     -45.52983562 Ry
     estimated scf accuracy    <       0.53338539 Ry

     iteration #  2     ecut=   150.00 Ry     beta= 0.70
     Davidson diagonalization with overlap
     ethr =  3.33E-03,  avg # of iterations =  2.0

     total cpu time spent up to now is        1.5 secs

     total energy              =     -45.28395098 Ry
     Harris-Foulkes estimate   =     -45.28477572 Ry
     estimated scf accuracy    <       0.00586259 Ry

     iteration #  3     ecut=   150.00 Ry     beta= 0.70
     Davidson diagonalization with overlap
     ethr =  3.66E-05,  avg # of iterations =  2.0

     total cpu time spent up to now is        1.9 secs

     total energy              =     -45.28437655 Ry
     Harris-Foulkes estimate   =     -45.28436099 Ry
     estimated scf accuracy    <       0.00038464 Ry

     iteration #  4     ecut=   150.00 Ry     beta= 0.70
     Davidson diagonalization with overlap
     ethr =  2.40E-06,  avg # of iterations =  2.3

     total cpu time spent up to now is        2.3 secs

     total energy              =     -45.28442097 Ry
     Harris-Foulkes estimate   =     -45.28442068 Ry
     estimated scf accuracy    <       0.00000316 Ry

     iteration #  5     ecut=   150.00 Ry     beta= 0.70
     Davidson diagonalization with overlap
     ethr =  1.97E-08,  avg # of iterations =  3.5

     total cpu time spent up to now is        2.8 secs

     End of self-consistent calculation

          k = 0.0000 0.0000 0.0000 (  9537 PWs)   bands (ev):

   -14.7652 -14.7305  -3.5366  -3.0627   1.4692   1.4701   1.4736   1.4745

          k = 0.0000 0.0000-0.1420 (  9580 PWs)   bands (ev):

   -14.7479 -14.7479  -3.3101  -3.3101   1.4696   1.4696   1.4740   1.4740

          k = 0.0000-0.5774 0.0000 (  9598 PWs)   bands (ev):

    -9.4900  -9.4790  -8.7179  -8.7092  -1.9625  -1.9591   1.9746   2.1153

          k = 0.0000-0.5774-0.1420 (  9592 PWs)   bands (ev):

    -9.4844  -9.4844  -8.7137  -8.7137  -1.9608  -1.9608   2.0471   2.0471

          k =-0.5000 0.2887 0.0000 (  9598 PWs)   bands (ev):

    -9.4892  -9.4782  -8.7197  -8.7110  -1.9610  -1.9576   1.9762   2.1168

          k =-0.5000 0.2887 0.1420 (  9592 PWs)   bands (ev):

    -9.4836  -9.4836  -8.7155  -8.7155  -1.9593  -1.9593   2.0486   2.0486

     highest occupied level (ev):     2.1168

!    total energy              =     -45.28442545 Ry
     Harris-Foulkes estimate   =     -45.28442560 Ry
     estimated scf accuracy    <       0.00000024 Ry

     The total energy is the sum of the following terms:

     one-electron contribution =     -34.67497627 Ry
     hartree contribution      =      23.89135159 Ry
     xc contribution           =     -13.92642822 Ry
     ewald contribution        =     -20.57437255 Ry

     convergence has been achieved in   5 iterations

     init_run     :      1.12s CPU      0.46s WALL (       1 calls)
     electrons    :      6.83s CPU      2.26s WALL (       1 calls)

     Called by init_run:
     wfcinit      :      0.91s CPU      0.32s WALL (       1 calls)
     potinit      :      0.11s CPU      0.02s WALL (       1 calls)
     hinit0       :      0.09s CPU      0.10s WALL (       1 calls)

     Called by electrons:
     c_bands      :      5.14s CPU      1.76s WALL (       5 calls)
     sum_band     :      1.34s CPU      0.40s WALL (       5 calls)
     v_of_rho     :      0.25s CPU      0.04s WALL (       6 calls)
     mix_rho      :      0.12s CPU      0.04s WALL (       5 calls)

     Called by c_bands:
     init_us_2    :      0.06s CPU      0.03s WALL (      66 calls)
     cegterg      :      4.97s CPU      1.72s WALL (      30 calls)

     Called by sum_band:

     Called by *egterg:
     h_psi        :      4.92s CPU      1.70s WALL (     113 calls)
     g_psi        :      0.05s CPU      0.02s WALL (      77 calls)
     cdiaghg      :      0.00s CPU      0.01s WALL (     107 calls)

     Called by h_psi:
     h_psi:pot    :      4.80s CPU      1.66s WALL (     113 calls)
     h_psi:calbec :      0.09s CPU      0.02s WALL (     113 calls)
     vloc_psi     :      4.67s CPU      1.62s WALL (     113 calls)
     add_vuspsi   :      0.03s CPU      0.01s WALL (     113 calls)

     General routines
     calbec       :      0.09s CPU      0.02s WALL (     113 calls)
     fft          :      0.03s CPU      0.01s WALL (      17 calls)
     ffts         :      0.03s CPU      0.00s WALL (       5 calls)
     fftw         :      2.36s CPU      0.65s WALL (    1788 calls)

     Parallel routines

     PWSCF        :      7.97s CPU      2.78s WALL


   This run was terminated on:  12:19:49  14Aug2023            

=------------------------------------------------------------------------------=
   JOB DONE.
=------------------------------------------------------------------------------=
