
     Program PWSCF v.6.4.1 starts on 14Aug2023 at 12:19:19 

     This program is part of the open-source Quantum ESPRESSO suite
     for quantum simulation of materials; please cite
         "P. Giannozzi et al., J. Phys.:Condens. Matter 21 395502 (2009);
         "P. Giannozzi et al., J. Phys.:Condens. Matter 29 465901 (2017);
          URL http://www.quantum-espresso.org", 
     in publications or presentations arising from this work. More details at
     http://www.quantum-espresso.org/quote

     Parallel version (MPI & OpenMP), running on      16 processor cores
     Number of MPI processes:                 1
     Threads/MPI process:                    16

     MPI processes distributed on     1 nodes
     Waiting for input...
     Reading input from standard input

     Current dimensions of program PWSCF are:
     Max number of different atomic species (ntypx) = 10
     Max number of k-points (npk) =  40000
     Max angular momentum in pseudopotentials (lmaxx) =  3

     Subspace diagonalization in iterative solution of the eigenvalue problem:
     a serial algorithm will be used


     G-vector sticks info
     --------------------
     sticks:   dense  smooth     PW     G-vecs:    dense   smooth      PW
     Sum         121     121     37                 3779     3779     747



     bravais-lattice index     =            4
     lattice parameter (alat)  =       4.6620  a.u.
     unit-cell volume          =     308.9124 (a.u.)^3
     number of atoms/cell      =            4
     number of atomic types    =            1
     number of electrons       =        16.00
     number of Kohn-Sham states=            8
     kinetic-energy cutoff     =      20.0000  Ry
     charge density cutoff     =      80.0000  Ry
     convergence threshold     =      1.0E-06
     mixing beta               =       0.7000
     number of iterations used =            8  plain     mixing
     Exchange-correlation      = SLA PZ NOGX NOGC ( 1  1  0  0 0 0)

     celldm(1)=   4.661954  celldm(2)=   0.000000  celldm(3)=   3.520470
     celldm(4)=   0.000000  celldm(5)=   0.000000  celldm(6)=   0.000000

     crystal axes: (cart. coord. in units of alat)
               a(1) = (   1.000000   0.000000   0.000000 )  
               a(2) = (  -0.500000   0.866025   0.000000 )  
               a(3) = (   0.000000   0.000000   3.520470 )  

     reciprocal axes: (cart. coord. in units 2 pi/alat)
               b(1) = (  1.000000  0.577350 -0.000000 )  
               b(2) = (  0.000000  1.154701  0.000000 )  
               b(3) = (  0.000000 -0.000000  0.284053 )  


     PseudoPot. # 1 for C  read from file:
     .\C.pz-vbc.UPF
     MD5 check sum: f697e42eaa1e52b77fcf7925dd36a1dd
     Pseudo is Norm-conserving, Zval =  4.0
     Generated by new atomic code, or converted to UPF format
     Using radial grid of  269 points,  1 beta functions with: 
                l(1) =   0

     atomic species   valence    mass     pseudopotential
        C              4.00    12.01100     C ( 1.00)

      8 Sym. Ops., with inversion, found ( 4 have fractional translation)



   Cartesian axes

     site n.     atom                  positions (alat units)
         1           C   tau(   1) = (   0.0000000   0.0000000   2.6403527  )
         2           C   tau(   2) = (   0.0000000   0.0000000   0.8801176  )
         3           C   tau(   3) = (  -0.0000500   0.5773791   2.6403527  )
         4           C   tau(   4) = (   0.5000500   0.2886463   0.8801176  )

     number of k points=     6
                       cart. coord. in units 2pi/alat
        k(    1) = (   0.0000000   0.0000000   0.0000000), wk =   0.2500000
        k(    2) = (   0.0000000   0.0000000  -0.1420265), wk =   0.2500000
        k(    3) = (   0.0000000  -0.5773503   0.0000000), wk =   0.5000000
        k(    4) = (   0.0000000  -0.5773503  -0.1420265), wk =   0.5000000
        k(    5) = (  -0.5000000   0.2886751   0.0000000), wk =   0.2500000
        k(    6) = (  -0.5000000   0.2886751   0.1420265), wk =   0.2500000

     Dense  grid:     3779 G-vectors     FFT dimensions: (  15,  15,  48)

     Estimated max dynamical RAM per process >       3.25 MB

     Initial potential from superposition of free atoms

     starting charge   15.99989, renormalised to   16.00000
     Starting wfcs are   16 randomized atomic wfcs

     total cpu time spent up to now is        0.2 secs

     Self-consistent Calculation

     iteration #  1     ecut=    20.00 Ry     beta= 0.70
     Davidson diagonalization with overlap
     ethr =  1.00E-02,  avg # of iterations =  2.0

     total cpu time spent up to now is        0.5 secs

     total energy              =     -43.95565217 Ry
     Harris-Foulkes estimate   =     -44.14137632 Ry
     estimated scf accuracy    <       0.34437822 Ry

     iteration #  2     ecut=    20.00 Ry     beta= 0.70
     Davidson diagonalization with overlap
     ethr =  2.15E-03,  avg # of iterations =  2.0

     total cpu time spent up to now is        0.8 secs

     total energy              =     -43.99966149 Ry
     Harris-Foulkes estimate   =     -44.00126513 Ry
     estimated scf accuracy    <       0.00830819 Ry

     iteration #  3     ecut=    20.00 Ry     beta= 0.70
     Davidson diagonalization with overlap
     ethr =  5.19E-05,  avg # of iterations =  1.0

     total cpu time spent up to now is        1.0 secs

     total energy              =     -43.99984190 Ry
     Harris-Foulkes estimate   =     -43.99991988 Ry
     estimated scf accuracy    <       0.00053452 Ry

     iteration #  4     ecut=    20.00 Ry     beta= 0.70
     Davidson diagonalization with overlap
     ethr =  3.34E-06,  avg # of iterations =  1.7

     total cpu time spent up to now is        1.2 secs

     End of self-consistent calculation

          k = 0.0000 0.0000 0.0000 (   473 PWs)   bands (ev):

   -14.8752 -14.8551  -3.2365  -2.5755   2.1329   2.1373   2.3086   2.3128

          k = 0.0000 0.0000-0.1420 (   480 PWs)   bands (ev):

   -14.8577 -14.8577  -2.9023  -2.9023   2.1216   2.1216   2.1260   2.1260

          k = 0.0000-0.5774 0.0000 (   470 PWs)   bands (ev):

    -9.4692  -9.4426  -8.5063  -8.4889  -1.3483  -1.3266   2.5223   2.7270

          k = 0.0000-0.5774-0.1420 (   472 PWs)   bands (ev):

    -9.4651  -9.4651  -8.5195  -8.5195  -1.3604  -1.3604   2.6415   2.6415

          k =-0.5000 0.2887 0.0000 (   470 PWs)   bands (ev):

    -9.4682  -9.4416  -8.5082  -8.4907  -1.3470  -1.3252   2.5239   2.7285

          k =-0.5000 0.2887 0.1420 (   472 PWs)   bands (ev):

    -9.4641  -9.4641  -8.5213  -8.5213  -1.3590  -1.3590   2.6431   2.6431

     highest occupied level (ev):     2.7285

!    total energy              =     -43.99988734 Ry
     Harris-Foulkes estimate   =     -43.99988751 Ry
     estimated scf accuracy    <       0.00000077 Ry

     The total energy is the sum of the following terms:

     one-electron contribution =     -32.63061831 Ry
     hartree contribution      =      22.99570534 Ry
     xc contribution           =     -13.79060181 Ry
     ewald contribution        =     -20.57437255 Ry

     convergence has been achieved in   4 iterations

     init_run     :      0.47s CPU      0.16s WALL (       1 calls)
     electrons    :      2.27s CPU      0.99s WALL (       1 calls)

     Called by init_run:
     wfcinit      :      0.45s CPU      0.14s WALL (       1 calls)
     potinit      :      0.00s CPU      0.00s WALL (       1 calls)
     hinit0       :      0.02s CPU      0.02s WALL (       1 calls)

     Called by electrons:
     c_bands      :      1.70s CPU      0.76s WALL (       4 calls)
     sum_band     :      0.53s CPU      0.21s WALL (       4 calls)
     v_of_rho     :      0.00s CPU      0.01s WALL (       5 calls)
     mix_rho      :      0.00s CPU      0.00s WALL (       4 calls)

     Called by c_bands:
     init_us_2    :      0.05s CPU      0.02s WALL (      54 calls)
     cegterg      :      1.59s CPU      0.74s WALL (      24 calls)

     Called by sum_band:

     Called by *egterg:
     h_psi        :      1.92s CPU      0.80s WALL (      70 calls)
     g_psi        :      0.02s CPU      0.01s WALL (      40 calls)
     cdiaghg      :      0.00s CPU      0.01s WALL (      64 calls)

     Called by h_psi:
     h_psi:pot    :      1.88s CPU      0.78s WALL (      70 calls)
     h_psi:calbec :      0.00s CPU      0.00s WALL (      70 calls)
     vloc_psi     :      1.86s CPU      0.78s WALL (      70 calls)
     add_vuspsi   :      0.02s CPU      0.00s WALL (      70 calls)

     General routines
     calbec       :      0.00s CPU      0.00s WALL (      70 calls)
     fft          :      0.00s CPU      0.00s WALL (      14 calls)
     ffts         :      0.00s CPU      0.00s WALL (       4 calls)
     fftw         :      0.17s CPU      0.05s WALL (    1328 calls)

     Parallel routines

     PWSCF        :      2.73s CPU      1.20s WALL


   This run was terminated on:  12:19:20  14Aug2023            

=------------------------------------------------------------------------------=
   JOB DONE.
=------------------------------------------------------------------------------=
