
     Program PWSCF v.6.4.1 starts on 14Aug2023 at 12:19:20 

     This program is part of the open-source Quantum ESPRESSO suite
     for quantum simulation of materials; please cite
         "P. Giannozzi et al., J. Phys.:Condens. Matter 21 395502 (2009);
         "P. Giannozzi et al., J. Phys.:Condens. Matter 29 465901 (2017);
          URL http://www.quantum-espresso.org", 
     in publications or presentations arising from this work. More details at
     http://www.quantum-espresso.org/quote

     Parallel version (MPI & OpenMP), running on      16 processor cores
     Number of MPI processes:                 1
     Threads/MPI process:                    16

     MPI processes distributed on     1 nodes
     Waiting for input...
     Reading input from standard input

     Current dimensions of program PWSCF are:
     Max number of different atomic species (ntypx) = 10
     Max number of k-points (npk) =  40000
     Max angular momentum in pseudopotentials (lmaxx) =  3

     Subspace diagonalization in iterative solution of the eigenvalue problem:
     a serial algorithm will be used


     G-vector sticks info
     --------------------
     sticks:   dense  smooth     PW     G-vecs:    dense   smooth      PW
     Sum         187     187     61                 6855     6855    1305



     bravais-lattice index     =            4
     lattice parameter (alat)  =       4.6620  a.u.
     unit-cell volume          =     308.9124 (a.u.)^3
     number of atoms/cell      =            4
     number of atomic types    =            1
     number of electrons       =        16.00
     number of Kohn-Sham states=            8
     kinetic-energy cutoff     =      30.0000  Ry
     charge density cutoff     =     120.0000  Ry
     convergence threshold     =      1.0E-06
     mixing beta               =       0.7000
     number of iterations used =            8  plain     mixing
     Exchange-correlation      = SLA PZ NOGX NOGC ( 1  1  0  0 0 0)

     celldm(1)=   4.661954  celldm(2)=   0.000000  celldm(3)=   3.520470
     celldm(4)=   0.000000  celldm(5)=   0.000000  celldm(6)=   0.000000

     crystal axes: (cart. coord. in units of alat)
               a(1) = (   1.000000   0.000000   0.000000 )  
               a(2) = (  -0.500000   0.866025   0.000000 )  
               a(3) = (   0.000000   0.000000   3.520470 )  

     reciprocal axes: (cart. coord. in units 2 pi/alat)
               b(1) = (  1.000000  0.577350 -0.000000 )  
               b(2) = (  0.000000  1.154701  0.000000 )  
               b(3) = (  0.000000 -0.000000  0.284053 )  


     PseudoPot. # 1 for C  read from file:
     .\C.pz-vbc.UPF
     MD5 check sum: f697e42eaa1e52b77fcf7925dd36a1dd
     Pseudo is Norm-conserving, Zval =  4.0
     Generated by new atomic code, or converted to UPF format
     Using radial grid of  269 points,  1 beta functions with: 
                l(1) =   0

     atomic species   valence    mass     pseudopotential
        C              4.00    12.01100     C ( 1.00)

      8 Sym. Ops., with inversion, found ( 4 have fractional translation)



   Cartesian axes

     site n.     atom                  positions (alat units)
         1           C   tau(   1) = (   0.0000000   0.0000000   2.6403527  )
         2           C   tau(   2) = (   0.0000000   0.0000000   0.8801176  )
         3           C   tau(   3) = (  -0.0000500   0.5773791   2.6403527  )
         4           C   tau(   4) = (   0.5000500   0.2886463   0.8801176  )

     number of k points=     6
                       cart. coord. in units 2pi/alat
        k(    1) = (   0.0000000   0.0000000   0.0000000), wk =   0.2500000
        k(    2) = (   0.0000000   0.0000000  -0.1420265), wk =   0.2500000
        k(    3) = (   0.0000000  -0.5773503   0.0000000), wk =   0.5000000
        k(    4) = (   0.0000000  -0.5773503  -0.1420265), wk =   0.5000000
        k(    5) = (  -0.5000000   0.2886751   0.0000000), wk =   0.2500000
        k(    6) = (  -0.5000000   0.2886751   0.1420265), wk =   0.2500000

     Dense  grid:     6855 G-vectors     FFT dimensions: (  18,  18,  60)

     Estimated max dynamical RAM per process >       5.86 MB

     Initial potential from superposition of free atoms

     starting charge   15.99989, renormalised to   16.00000
     Starting wfcs are   16 randomized atomic wfcs

     total cpu time spent up to now is        0.2 secs

     Self-consistent Calculation

     iteration #  1     ecut=    30.00 Ry     beta= 0.70
     Davidson diagonalization with overlap
     ethr =  1.00E-02,  avg # of iterations =  2.2

     total cpu time spent up to now is        0.6 secs

     total energy              =     -44.68119286 Ry
     Harris-Foulkes estimate   =     -44.94867319 Ry
     estimated scf accuracy    <       0.44340227 Ry

     iteration #  2     ecut=    30.00 Ry     beta= 0.70
     Davidson diagonalization with overlap
     ethr =  2.77E-03,  avg # of iterations =  2.0

     total cpu time spent up to now is        0.8 secs

     total energy              =     -44.74867906 Ry
     Harris-Foulkes estimate   =     -44.74996952 Ry
     estimated scf accuracy    <       0.00680354 Ry

     iteration #  3     ecut=    30.00 Ry     beta= 0.70
     Davidson diagonalization with overlap
     ethr =  4.25E-05,  avg # of iterations =  1.3

     total cpu time spent up to now is        1.1 secs

     total energy              =     -44.74901441 Ry
     Harris-Foulkes estimate   =     -44.74906356 Ry
     estimated scf accuracy    <       0.00048738 Ry

     iteration #  4     ecut=    30.00 Ry     beta= 0.70
     Davidson diagonalization with overlap
     ethr =  3.05E-06,  avg # of iterations =  1.7

     total cpu time spent up to now is        1.3 secs

     total energy              =     -44.74906807 Ry
     Harris-Foulkes estimate   =     -44.74906840 Ry
     estimated scf accuracy    <       0.00000106 Ry

     iteration #  5     ecut=    30.00 Ry     beta= 0.70
     Davidson diagonalization with overlap
     ethr =  6.65E-09,  avg # of iterations =  4.2

     total cpu time spent up to now is        1.7 secs

     End of self-consistent calculation

          k = 0.0000 0.0000 0.0000 (   827 PWs)   bands (ev):

   -14.8557 -14.8046  -3.3555  -2.9136   1.9237   1.9282   1.9560   1.9605

          k = 0.0000 0.0000-0.1420 (   820 PWs)   bands (ev):

   -14.8232 -14.8232  -3.1187  -3.1187   1.9585   1.9585   1.9630   1.9630

          k = 0.0000-0.5774 0.0000 (   868 PWs)   bands (ev):

    -9.5623  -9.5591  -8.6998  -8.6930  -1.6436  -1.6330   2.1996   2.3488

          k = 0.0000-0.5774-0.1420 (   868 PWs)   bands (ev):

    -9.5551  -9.5551  -8.6903  -8.6903  -1.6614  -1.6614   2.3253   2.3253

          k =-0.5000 0.2887 0.0000 (   868 PWs)   bands (ev):

    -9.5615  -9.5583  -8.7016  -8.6948  -1.6421  -1.6315   2.2011   2.3502

          k =-0.5000 0.2887 0.1420 (   868 PWs)   bands (ev):

    -9.5543  -9.5543  -8.6922  -8.6922  -1.6599  -1.6599   2.3268   2.3268

     highest occupied level (ev):     2.3502

!    total energy              =     -44.74907165 Ry
     Harris-Foulkes estimate   =     -44.74907182 Ry
     estimated scf accuracy    <       0.00000028 Ry

     The total energy is the sum of the following terms:

     one-electron contribution =     -33.82487471 Ry
     hartree contribution      =      23.53141126 Ry
     xc contribution           =     -13.88123564 Ry
     ewald contribution        =     -20.57437256 Ry

     convergence has been achieved in   5 iterations

     init_run     :      0.33s CPU      0.20s WALL (       1 calls)
     electrons    :      2.94s CPU      1.46s WALL (       1 calls)

     Called by init_run:
     wfcinit      :      0.31s CPU      0.17s WALL (       1 calls)
     potinit      :      0.00s CPU      0.01s WALL (       1 calls)
     hinit0       :      0.02s CPU      0.02s WALL (       1 calls)

     Called by electrons:
     c_bands      :      2.38s CPU      1.15s WALL (       5 calls)
     sum_band     :      0.55s CPU      0.29s WALL (       5 calls)
     v_of_rho     :      0.00s CPU      0.01s WALL (       6 calls)
     mix_rho      :      0.02s CPU      0.01s WALL (       5 calls)

     Called by c_bands:
     init_us_2    :      0.08s CPU      0.02s WALL (      66 calls)
     cegterg      :      2.30s CPU      1.12s WALL (      30 calls)

     Called by sum_band:

     Called by *egterg:
     h_psi        :      2.31s CPU      1.16s WALL (     104 calls)
     g_psi        :      0.08s CPU      0.02s WALL (      68 calls)
     cdiaghg      :      0.05s CPU      0.01s WALL (      98 calls)

     Called by h_psi:
     h_psi:pot    :      2.23s CPU      1.12s WALL (     104 calls)
     h_psi:calbec :      0.00s CPU      0.00s WALL (     104 calls)
     vloc_psi     :      2.19s CPU      1.12s WALL (     104 calls)
     add_vuspsi   :      0.05s CPU      0.00s WALL (     104 calls)

     General routines
     calbec       :      0.00s CPU      0.00s WALL (     104 calls)
     fft          :      0.00s CPU      0.00s WALL (      17 calls)
     ffts         :      0.00s CPU      0.00s WALL (       5 calls)
     fftw         :      0.36s CPU      0.11s WALL (    1780 calls)

     Parallel routines

     PWSCF        :      3.30s CPU      1.71s WALL


   This run was terminated on:  12:19:22  14Aug2023            

=------------------------------------------------------------------------------=
   JOB DONE.
=------------------------------------------------------------------------------=
