
     Program PWSCF v.6.4.1 starts on 14Aug2023 at 12:19:22 

     This program is part of the open-source Quantum ESPRESSO suite
     for quantum simulation of materials; please cite
         "P. Giannozzi et al., J. Phys.:Condens. Matter 21 395502 (2009);
         "P. Giannozzi et al., J. Phys.:Condens. Matter 29 465901 (2017);
          URL http://www.quantum-espresso.org", 
     in publications or presentations arising from this work. More details at
     http://www.quantum-espresso.org/quote

     Parallel version (MPI & OpenMP), running on      16 processor cores
     Number of MPI processes:                 1
     Threads/MPI process:                    16

     MPI processes distributed on     1 nodes
     Waiting for input...
     Reading input from standard input

     Current dimensions of program PWSCF are:
     Max number of different atomic species (ntypx) = 10
     Max number of k-points (npk) =  40000
     Max angular momentum in pseudopotentials (lmaxx) =  3

     Subspace diagonalization in iterative solution of the eigenvalue problem:
     a serial algorithm will be used


     G-vector sticks info
     --------------------
     sticks:   dense  smooth     PW     G-vecs:    dense   smooth      PW
     Sum         241     241     73                10627    10627    1885



     bravais-lattice index     =            4
     lattice parameter (alat)  =       4.6620  a.u.
     unit-cell volume          =     308.9124 (a.u.)^3
     number of atoms/cell      =            4
     number of atomic types    =            1
     number of electrons       =        16.00
     number of Kohn-Sham states=            8
     kinetic-energy cutoff     =      40.0000  Ry
     charge density cutoff     =     160.0000  Ry
     convergence threshold     =      1.0E-06
     mixing beta               =       0.7000
     number of iterations used =            8  plain     mixing
     Exchange-correlation      = SLA PZ NOGX NOGC ( 1  1  0  0 0 0)

     celldm(1)=   4.661954  celldm(2)=   0.000000  celldm(3)=   3.520470
     celldm(4)=   0.000000  celldm(5)=   0.000000  celldm(6)=   0.000000

     crystal axes: (cart. coord. in units of alat)
               a(1) = (   1.000000   0.000000   0.000000 )  
               a(2) = (  -0.500000   0.866025   0.000000 )  
               a(3) = (   0.000000   0.000000   3.520470 )  

     reciprocal axes: (cart. coord. in units 2 pi/alat)
               b(1) = (  1.000000  0.577350 -0.000000 )  
               b(2) = (  0.000000  1.154701  0.000000 )  
               b(3) = (  0.000000 -0.000000  0.284053 )  


     PseudoPot. # 1 for C  read from file:
     .\C.pz-vbc.UPF
     MD5 check sum: f697e42eaa1e52b77fcf7925dd36a1dd
     Pseudo is Norm-conserving, Zval =  4.0
     Generated by new atomic code, or converted to UPF format
     Using radial grid of  269 points,  1 beta functions with: 
                l(1) =   0

     atomic species   valence    mass     pseudopotential
        C              4.00    12.01100     C ( 1.00)

      8 Sym. Ops., with inversion, found ( 4 have fractional translation)



   Cartesian axes

     site n.     atom                  positions (alat units)
         1           C   tau(   1) = (   0.0000000   0.0000000   2.6403527  )
         2           C   tau(   2) = (   0.0000000   0.0000000   0.8801176  )
         3           C   tau(   3) = (  -0.0000500   0.5773791   2.6403527  )
         4           C   tau(   4) = (   0.5000500   0.2886463   0.8801176  )

     number of k points=     6
                       cart. coord. in units 2pi/alat
        k(    1) = (   0.0000000   0.0000000   0.0000000), wk =   0.2500000
        k(    2) = (   0.0000000   0.0000000  -0.1420265), wk =   0.2500000
        k(    3) = (   0.0000000  -0.5773503   0.0000000), wk =   0.5000000
        k(    4) = (   0.0000000  -0.5773503  -0.1420265), wk =   0.5000000
        k(    5) = (  -0.5000000   0.2886751   0.0000000), wk =   0.2500000
        k(    6) = (  -0.5000000   0.2886751   0.1420265), wk =   0.2500000

     Dense  grid:    10627 G-vectors     FFT dimensions: (  20,  20,  72)

     Estimated max dynamical RAM per process >       8.95 MB

     Initial potential from superposition of free atoms

     starting charge   15.99989, renormalised to   16.00000
     Starting wfcs are   16 randomized atomic wfcs

     total cpu time spent up to now is        0.3 secs

     Self-consistent Calculation

     iteration #  1     ecut=    40.00 Ry     beta= 0.70
     Davidson diagonalization with overlap
     ethr =  1.00E-02,  avg # of iterations =  2.2

     total cpu time spent up to now is        0.6 secs

     total energy              =     -44.97994274 Ry
     Harris-Foulkes estimate   =     -45.28379130 Ry
     estimated scf accuracy    <       0.48902472 Ry

     iteration #  2     ecut=    40.00 Ry     beta= 0.70
     Davidson diagonalization with overlap
     ethr =  3.06E-03,  avg # of iterations =  2.0

     total cpu time spent up to now is        0.8 secs

     total energy              =     -45.05737293 Ry
     Harris-Foulkes estimate   =     -45.05857634 Ry
     estimated scf accuracy    <       0.00617345 Ry

     iteration #  3     ecut=    40.00 Ry     beta= 0.70
     Davidson diagonalization with overlap
     ethr =  3.86E-05,  avg # of iterations =  2.0

     total cpu time spent up to now is        1.1 secs

     total energy              =     -45.05781410 Ry
     Harris-Foulkes estimate   =     -45.05785778 Ry
     estimated scf accuracy    <       0.00042799 Ry

     iteration #  4     ecut=    40.00 Ry     beta= 0.70
     Davidson diagonalization with overlap
     ethr =  2.67E-06,  avg # of iterations =  2.0

     total cpu time spent up to now is        1.3 secs

     total energy              =     -45.05785024 Ry
     Harris-Foulkes estimate   =     -45.05785069 Ry
     estimated scf accuracy    <       0.00000175 Ry

     iteration #  5     ecut=    40.00 Ry     beta= 0.70
     Davidson diagonalization with overlap
     ethr =  1.09E-08,  avg # of iterations =  3.3

     total cpu time spent up to now is        1.7 secs

     End of self-consistent calculation

          k = 0.0000 0.0000 0.0000 (  1329 PWs)   bands (ev):

   -14.8395 -14.8012  -3.4621  -2.9953   1.6504   1.6548   1.6569   1.6612

          k = 0.0000 0.0000-0.1420 (  1354 PWs)   bands (ev):

   -14.8237 -14.8237  -3.2468  -3.2468   1.6314   1.6314   1.6358   1.6358

          k = 0.0000-0.5774 0.0000 (  1316 PWs)   bands (ev):

    -9.5294  -9.5159  -8.6854  -8.6737  -1.8402  -1.8317   2.0896   2.2320

          k = 0.0000-0.5774-0.1420 (  1332 PWs)   bands (ev):

    -9.5250  -9.5250  -8.6833  -8.6833  -1.8363  -1.8363   2.1527   2.1527

          k =-0.5000 0.2887 0.0000 (  1316 PWs)   bands (ev):

    -9.5285  -9.5151  -8.6872  -8.6756  -1.8387  -1.8303   2.0911   2.2335

          k =-0.5000 0.2887 0.1420 (  1332 PWs)   bands (ev):

    -9.5242  -9.5242  -8.6851  -8.6851  -1.8349  -1.8349   2.1542   2.1542

     highest occupied level (ev):     2.2335

!    total energy              =     -45.05785423 Ry
     Harris-Foulkes estimate   =     -45.05785440 Ry
     estimated scf accuracy    <       0.00000026 Ry

     The total energy is the sum of the following terms:

     one-electron contribution =     -34.30934048 Ry
     hartree contribution      =      23.73497743 Ry
     xc contribution           =     -13.90911863 Ry
     ewald contribution        =     -20.57437254 Ry

     convergence has been achieved in   5 iterations

     init_run     :      0.44s CPU      0.23s WALL (       1 calls)
     electrons    :      3.86s CPU      1.42s WALL (       1 calls)

     Called by init_run:
     wfcinit      :      0.41s CPU      0.19s WALL (       1 calls)
     potinit      :      0.02s CPU      0.01s WALL (       1 calls)
     hinit0       :      0.02s CPU      0.03s WALL (       1 calls)

     Called by electrons:
     c_bands      :      3.00s CPU      1.12s WALL (       5 calls)
     sum_band     :      0.83s CPU      0.28s WALL (       5 calls)
     v_of_rho     :      0.02s CPU      0.01s WALL (       6 calls)
     mix_rho      :      0.03s CPU      0.01s WALL (       5 calls)

     Called by c_bands:
     init_us_2    :      0.00s CPU      0.02s WALL (      66 calls)
     cegterg      :      3.00s CPU      1.09s WALL (      30 calls)

     Called by sum_band:

     Called by *egterg:
     h_psi        :      3.00s CPU      1.14s WALL (     105 calls)
     g_psi        :      0.12s CPU      0.02s WALL (      69 calls)
     cdiaghg      :      0.02s CPU      0.02s WALL (      99 calls)

     Called by h_psi:
     h_psi:pot    :      2.89s CPU      1.10s WALL (     105 calls)
     h_psi:calbec :      0.06s CPU      0.00s WALL (     105 calls)
     vloc_psi     :      2.83s CPU      1.09s WALL (     105 calls)
     add_vuspsi   :      0.00s CPU      0.00s WALL (     105 calls)

     General routines
     calbec       :      0.06s CPU      0.00s WALL (     105 calls)
     fft          :      0.00s CPU      0.00s WALL (      17 calls)
     ffts         :      0.00s CPU      0.00s WALL (       5 calls)
     fftw         :      0.53s CPU      0.15s WALL (    1770 calls)

     Parallel routines

     PWSCF        :      4.30s CPU      1.70s WALL


   This run was terminated on:  12:19:24  14Aug2023            

=------------------------------------------------------------------------------=
   JOB DONE.
=------------------------------------------------------------------------------=
