
     Program PWSCF v.6.4.1 starts on 14Aug2023 at 12:19:24 

     This program is part of the open-source Quantum ESPRESSO suite
     for quantum simulation of materials; please cite
         "P. Giannozzi et al., J. Phys.:Condens. Matter 21 395502 (2009);
         "P. Giannozzi et al., J. Phys.:Condens. Matter 29 465901 (2017);
          URL http://www.quantum-espresso.org", 
     in publications or presentations arising from this work. More details at
     http://www.quantum-espresso.org/quote

     Parallel version (MPI & OpenMP), running on      16 processor cores
     Number of MPI processes:                 1
     Threads/MPI process:                    16

     MPI processes distributed on     1 nodes
     Waiting for input...
     Reading input from standard input

     Current dimensions of program PWSCF are:
     Max number of different atomic species (ntypx) = 10
     Max number of k-points (npk) =  40000
     Max angular momentum in pseudopotentials (lmaxx) =  3

     Subspace diagonalization in iterative solution of the eigenvalue problem:
     a serial algorithm will be used


     G-vector sticks info
     --------------------
     sticks:   dense  smooth     PW     G-vecs:    dense   smooth      PW
     Sum         301     301     91                14785    14785    2531



     bravais-lattice index     =            4
     lattice parameter (alat)  =       4.6620  a.u.
     unit-cell volume          =     308.9124 (a.u.)^3
     number of atoms/cell      =            4
     number of atomic types    =            1
     number of electrons       =        16.00
     number of Kohn-Sham states=            8
     kinetic-energy cutoff     =      50.0000  Ry
     charge density cutoff     =     200.0000  Ry
     convergence threshold     =      1.0E-06
     mixing beta               =       0.7000
     number of iterations used =            8  plain     mixing
     Exchange-correlation      = SLA PZ NOGX NOGC ( 1  1  0  0 0 0)

     celldm(1)=   4.661954  celldm(2)=   0.000000  celldm(3)=   3.520470
     celldm(4)=   0.000000  celldm(5)=   0.000000  celldm(6)=   0.000000

     crystal axes: (cart. coord. in units of alat)
               a(1) = (   1.000000   0.000000   0.000000 )  
               a(2) = (  -0.500000   0.866025   0.000000 )  
               a(3) = (   0.000000   0.000000   3.520470 )  

     reciprocal axes: (cart. coord. in units 2 pi/alat)
               b(1) = (  1.000000  0.577350 -0.000000 )  
               b(2) = (  0.000000  1.154701  0.000000 )  
               b(3) = (  0.000000 -0.000000  0.284053 )  


     PseudoPot. # 1 for C  read from file:
     .\C.pz-vbc.UPF
     MD5 check sum: f697e42eaa1e52b77fcf7925dd36a1dd
     Pseudo is Norm-conserving, Zval =  4.0
     Generated by new atomic code, or converted to UPF format
     Using radial grid of  269 points,  1 beta functions with: 
                l(1) =   0

     atomic species   valence    mass     pseudopotential
        C              4.00    12.01100     C ( 1.00)

      8 Sym. Ops., with inversion, found ( 4 have fractional translation)



   Cartesian axes

     site n.     atom                  positions (alat units)
         1           C   tau(   1) = (   0.0000000   0.0000000   2.6403527  )
         2           C   tau(   2) = (   0.0000000   0.0000000   0.8801176  )
         3           C   tau(   3) = (  -0.0000500   0.5773791   2.6403527  )
         4           C   tau(   4) = (   0.5000500   0.2886463   0.8801176  )

     number of k points=     6
                       cart. coord. in units 2pi/alat
        k(    1) = (   0.0000000   0.0000000   0.0000000), wk =   0.2500000
        k(    2) = (   0.0000000   0.0000000  -0.1420265), wk =   0.2500000
        k(    3) = (   0.0000000  -0.5773503   0.0000000), wk =   0.5000000
        k(    4) = (   0.0000000  -0.5773503  -0.1420265), wk =   0.5000000
        k(    5) = (  -0.5000000   0.2886751   0.0000000), wk =   0.2500000
        k(    6) = (  -0.5000000   0.2886751   0.1420265), wk =   0.2500000

     Dense  grid:    14785 G-vectors     FFT dimensions: (  24,  24,  80)

     Estimated max dynamical RAM per process >      12.86 MB

     Initial potential from superposition of free atoms

     starting charge   15.99989, renormalised to   16.00000
     Starting wfcs are   16 randomized atomic wfcs

     total cpu time spent up to now is        0.3 secs

     Self-consistent Calculation

     iteration #  1     ecut=    50.00 Ry     beta= 0.70
     Davidson diagonalization with overlap
     ethr =  1.00E-02,  avg # of iterations =  2.3

     total cpu time spent up to now is        0.6 secs

     total energy              =     -45.11231310 Ry
     Harris-Foulkes estimate   =     -45.43414331 Ry
     estimated scf accuracy    <       0.51243054 Ry

     iteration #  2     ecut=    50.00 Ry     beta= 0.70
     Davidson diagonalization with overlap
     ethr =  3.20E-03,  avg # of iterations =  2.0

     total cpu time spent up to now is        0.8 secs

     total energy              =     -45.19465073 Ry
     Harris-Foulkes estimate   =     -45.19582293 Ry
     estimated scf accuracy    <       0.00601813 Ry

     iteration #  3     ecut=    50.00 Ry     beta= 0.70
     Davidson diagonalization with overlap
     ethr =  3.76E-05,  avg # of iterations =  2.0

     total cpu time spent up to now is        1.1 secs

     total energy              =     -45.19514074 Ry
     Harris-Foulkes estimate   =     -45.19516568 Ry
     estimated scf accuracy    <       0.00041166 Ry

     iteration #  4     ecut=    50.00 Ry     beta= 0.70
     Davidson diagonalization with overlap
     ethr =  2.57E-06,  avg # of iterations =  2.3

     total cpu time spent up to now is        1.3 secs

     total energy              =     -45.19517987 Ry
     Harris-Foulkes estimate   =     -45.19518021 Ry
     estimated scf accuracy    <       0.00000178 Ry

     iteration #  5     ecut=    50.00 Ry     beta= 0.70
     Davidson diagonalization with overlap
     ethr =  1.11E-08,  avg # of iterations =  4.0

     total cpu time spent up to now is        1.7 secs

     End of self-consistent calculation

          k = 0.0000 0.0000 0.0000 (  1849 PWs)   bands (ev):

   -14.7967 -14.7642  -3.5118  -3.0244   1.5230   1.5274   1.5286   1.5331

          k = 0.0000 0.0000-0.1420 (  1824 PWs)   bands (ev):

   -14.7806 -14.7806  -3.2773  -3.2773   1.5337   1.5337   1.5382   1.5382

          k = 0.0000-0.5774 0.0000 (  1848 PWs)   bands (ev):

    -9.5162  -9.5057  -8.7183  -8.7095  -1.9118  -1.9071   2.0285   2.1688

          k = 0.0000-0.5774-0.1420 (  1856 PWs)   bands (ev):

    -9.5115  -9.5115  -8.7125  -8.7125  -1.9120  -1.9120   2.0968   2.0968

          k =-0.5000 0.2887 0.0000 (  1848 PWs)   bands (ev):

    -9.5152  -9.5048  -8.7202  -8.7114  -1.9103  -1.9056   2.0301   2.1703

          k =-0.5000 0.2887 0.1420 (  1856 PWs)   bands (ev):

    -9.5106  -9.5106  -8.7144  -8.7144  -1.9105  -1.9105   2.0983   2.0983

     highest occupied level (ev):     2.1703

!    total energy              =     -45.19518371 Ry
     Harris-Foulkes estimate   =     -45.19518379 Ry
     estimated scf accuracy    <       0.00000014 Ry

     The total energy is the sum of the following terms:

     one-electron contribution =     -34.52613958 Ry
     hartree contribution      =      23.82578110 Ry
     xc contribution           =     -13.92045242 Ry
     ewald contribution        =     -20.57437281 Ry

     convergence has been achieved in   5 iterations

     init_run     :      0.38s CPU      0.20s WALL (       1 calls)
     electrons    :      4.16s CPU      1.42s WALL (       1 calls)

     Called by init_run:
     wfcinit      :      0.34s CPU      0.16s WALL (       1 calls)
     potinit      :      0.00s CPU      0.01s WALL (       1 calls)
     hinit0       :      0.03s CPU      0.03s WALL (       1 calls)

     Called by electrons:
     c_bands      :      3.23s CPU      1.12s WALL (       5 calls)
     sum_band     :      0.73s CPU      0.27s WALL (       5 calls)
     v_of_rho     :      0.03s CPU      0.01s WALL (       6 calls)
     mix_rho      :      0.14s CPU      0.01s WALL (       5 calls)

     Called by c_bands:
     init_us_2    :      0.06s CPU      0.02s WALL (      66 calls)
     cegterg      :      3.16s CPU      1.09s WALL (      30 calls)

     Called by sum_band:

     Called by *egterg:
     h_psi        :      3.12s CPU      1.10s WALL (     112 calls)
     g_psi        :      0.09s CPU      0.02s WALL (      76 calls)
     cdiaghg      :      0.02s CPU      0.01s WALL (     106 calls)

     Called by h_psi:
     h_psi:pot    :      2.98s CPU      1.06s WALL (     112 calls)
     h_psi:calbec :      0.02s CPU      0.00s WALL (     112 calls)
     vloc_psi     :      2.92s CPU      1.05s WALL (     112 calls)
     add_vuspsi   :      0.05s CPU      0.00s WALL (     112 calls)

     General routines
     calbec       :      0.02s CPU      0.00s WALL (     112 calls)
     fft          :      0.00s CPU      0.00s WALL (      17 calls)
     ffts         :      0.00s CPU      0.00s WALL (       5 calls)
     fftw         :      0.64s CPU      0.16s WALL (    1788 calls)

     Parallel routines

     PWSCF        :      4.55s CPU      1.70s WALL


   This run was terminated on:  12:19:25  14Aug2023            

=------------------------------------------------------------------------------=
   JOB DONE.
=------------------------------------------------------------------------------=
