
     Program PWSCF v.6.4.1 starts on 14Aug2023 at 12:19:25 

     This program is part of the open-source Quantum ESPRESSO suite
     for quantum simulation of materials; please cite
         "P. Giannozzi et al., J. Phys.:Condens. Matter 21 395502 (2009);
         "P. Giannozzi et al., J. Phys.:Condens. Matter 29 465901 (2017);
          URL http://www.quantum-espresso.org", 
     in publications or presentations arising from this work. More details at
     http://www.quantum-espresso.org/quote

     Parallel version (MPI & OpenMP), running on      16 processor cores
     Number of MPI processes:                 1
     Threads/MPI process:                    16

     MPI processes distributed on     1 nodes
     Waiting for input...
     Reading input from standard input

     Current dimensions of program PWSCF are:
     Max number of different atomic species (ntypx) = 10
     Max number of k-points (npk) =  40000
     Max angular momentum in pseudopotentials (lmaxx) =  3

     Subspace diagonalization in iterative solution of the eigenvalue problem:
     a serial algorithm will be used


     G-vector sticks info
     --------------------
     sticks:   dense  smooth     PW     G-vecs:    dense   smooth      PW
     Sum         361     361    109                19461    19461    3249



     bravais-lattice index     =            4
     lattice parameter (alat)  =       4.6620  a.u.
     unit-cell volume          =     308.9124 (a.u.)^3
     number of atoms/cell      =            4
     number of atomic types    =            1
     number of electrons       =        16.00
     number of Kohn-Sham states=            8
     kinetic-energy cutoff     =      60.0000  Ry
     charge density cutoff     =     240.0000  Ry
     convergence threshold     =      1.0E-06
     mixing beta               =       0.7000
     number of iterations used =            8  plain     mixing
     Exchange-correlation      = SLA PZ NOGX NOGC ( 1  1  0  0 0 0)

     celldm(1)=   4.661954  celldm(2)=   0.000000  celldm(3)=   3.520470
     celldm(4)=   0.000000  celldm(5)=   0.000000  celldm(6)=   0.000000

     crystal axes: (cart. coord. in units of alat)
               a(1) = (   1.000000   0.000000   0.000000 )  
               a(2) = (  -0.500000   0.866025   0.000000 )  
               a(3) = (   0.000000   0.000000   3.520470 )  

     reciprocal axes: (cart. coord. in units 2 pi/alat)
               b(1) = (  1.000000  0.577350 -0.000000 )  
               b(2) = (  0.000000  1.154701  0.000000 )  
               b(3) = (  0.000000 -0.000000  0.284053 )  


     PseudoPot. # 1 for C  read from file:
     .\C.pz-vbc.UPF
     MD5 check sum: f697e42eaa1e52b77fcf7925dd36a1dd
     Pseudo is Norm-conserving, Zval =  4.0
     Generated by new atomic code, or converted to UPF format
     Using radial grid of  269 points,  1 beta functions with: 
                l(1) =   0

     atomic species   valence    mass     pseudopotential
        C              4.00    12.01100     C ( 1.00)

      8 Sym. Ops., with inversion, found ( 4 have fractional translation)



   Cartesian axes

     site n.     atom                  positions (alat units)
         1           C   tau(   1) = (   0.0000000   0.0000000   2.6403527  )
         2           C   tau(   2) = (   0.0000000   0.0000000   0.8801176  )
         3           C   tau(   3) = (  -0.0000500   0.5773791   2.6403527  )
         4           C   tau(   4) = (   0.5000500   0.2886463   0.8801176  )

     number of k points=     6
                       cart. coord. in units 2pi/alat
        k(    1) = (   0.0000000   0.0000000   0.0000000), wk =   0.2500000
        k(    2) = (   0.0000000   0.0000000  -0.1420265), wk =   0.2500000
        k(    3) = (   0.0000000  -0.5773503   0.0000000), wk =   0.5000000
        k(    4) = (   0.0000000  -0.5773503  -0.1420265), wk =   0.5000000
        k(    5) = (  -0.5000000   0.2886751   0.0000000), wk =   0.2500000
        k(    6) = (  -0.5000000   0.2886751   0.1420265), wk =   0.2500000

     Dense  grid:    19461 G-vectors     FFT dimensions: (  24,  24,  90)

     Estimated max dynamical RAM per process >      16.29 MB

     Initial potential from superposition of free atoms

     starting charge   15.99989, renormalised to   16.00000
     Starting wfcs are   16 randomized atomic wfcs

     total cpu time spent up to now is        0.3 secs

     Self-consistent Calculation

     iteration #  1     ecut=    60.00 Ry     beta= 0.70
     Davidson diagonalization with overlap
     ethr =  1.00E-02,  avg # of iterations =  2.3

     total cpu time spent up to now is        0.6 secs

     total energy              =     -45.15788023 Ry
     Harris-Foulkes estimate   =     -45.48716747 Ry
     estimated scf accuracy    <       0.52256298 Ry

     iteration #  2     ecut=    60.00 Ry     beta= 0.70
     Davidson diagonalization with overlap
     ethr =  3.27E-03,  avg # of iterations =  2.0

     total cpu time spent up to now is        0.9 secs

     total energy              =     -45.24271650 Ry
     Harris-Foulkes estimate   =     -45.24388735 Ry
     estimated scf accuracy    <       0.00597237 Ry

     iteration #  3     ecut=    60.00 Ry     beta= 0.70
     Davidson diagonalization with overlap
     ethr =  3.73E-05,  avg # of iterations =  2.0

     total cpu time spent up to now is        1.2 secs

     total energy              =     -45.24321635 Ry
     Harris-Foulkes estimate   =     -45.24324324 Ry
     estimated scf accuracy    <       0.00040645 Ry

     iteration #  4     ecut=    60.00 Ry     beta= 0.70
     Davidson diagonalization with overlap
     ethr =  2.54E-06,  avg # of iterations =  2.2

     total cpu time spent up to now is        1.4 secs

     total energy              =     -45.24325246 Ry
     Harris-Foulkes estimate   =     -45.24325257 Ry
     estimated scf accuracy    <       0.00000146 Ry

     iteration #  5     ecut=    60.00 Ry     beta= 0.70
     Davidson diagonalization with overlap
     ethr =  9.13E-09,  avg # of iterations =  3.8

     total cpu time spent up to now is        1.8 secs

     End of self-consistent calculation

          k = 0.0000 0.0000 0.0000 (  2393 PWs)   bands (ev):

   -14.7846 -14.7500  -3.5184  -3.0494   1.5066   1.5088   1.5110   1.5132

          k = 0.0000 0.0000-0.1420 (  2428 PWs)   bands (ev):

   -14.7678 -14.7678  -3.2960  -3.2960   1.5057   1.5057   1.5101   1.5101

          k = 0.0000-0.5774 0.0000 (  2440 PWs)   bands (ev):

    -9.5069  -9.4958  -8.7183  -8.7097  -1.9359  -1.9354   1.9980   2.1370

          k = 0.0000-0.5774-0.1420 (  2440 PWs)   bands (ev):

    -9.5012  -9.5012  -8.7147  -8.7147  -1.9348  -1.9348   2.0704   2.0704

          k =-0.5000 0.2887 0.0000 (  2440 PWs)   bands (ev):

    -9.5060  -9.4950  -8.7201  -8.7115  -1.9344  -1.9339   1.9995   2.1385

          k =-0.5000 0.2887 0.1420 (  2440 PWs)   bands (ev):

    -9.5004  -9.5004  -8.7165  -8.7165  -1.9333  -1.9333   2.0719   2.0719

     highest occupied level (ev):     2.1385

!    total energy              =     -45.24325529 Ry
     Harris-Foulkes estimate   =     -45.24325536 Ry
     estimated scf accuracy    <       0.00000014 Ry

     The total energy is the sum of the following terms:

     one-electron contribution =     -34.60585090 Ry
     hartree contribution      =      23.86159529 Ry
     xc contribution           =     -13.92462713 Ry
     ewald contribution        =     -20.57437256 Ry

     convergence has been achieved in   5 iterations

     init_run     :      0.42s CPU      0.23s WALL (       1 calls)
     electrons    :      4.47s CPU      1.53s WALL (       1 calls)

     Called by init_run:
     wfcinit      :      0.33s CPU      0.17s WALL (       1 calls)
     potinit      :      0.06s CPU      0.01s WALL (       1 calls)
     hinit0       :      0.03s CPU      0.04s WALL (       1 calls)

     Called by electrons:
     c_bands      :      3.70s CPU      1.21s WALL (       5 calls)
     sum_band     :      0.66s CPU      0.29s WALL (       5 calls)
     v_of_rho     :      0.05s CPU      0.01s WALL (       6 calls)
     mix_rho      :      0.05s CPU      0.02s WALL (       5 calls)

     Called by c_bands:
     init_us_2    :      0.00s CPU      0.02s WALL (      66 calls)
     cegterg      :      3.64s CPU      1.18s WALL (      30 calls)

     Called by sum_band:

     Called by *egterg:
     h_psi        :      3.58s CPU      1.20s WALL (     110 calls)
     g_psi        :      0.06s CPU      0.03s WALL (      74 calls)
     cdiaghg      :      0.03s CPU      0.01s WALL (     104 calls)

     Called by h_psi:
     h_psi:pot    :      3.44s CPU      1.15s WALL (     110 calls)
     h_psi:calbec :      0.03s CPU      0.00s WALL (     110 calls)
     vloc_psi     :      3.39s CPU      1.15s WALL (     110 calls)
     add_vuspsi   :      0.00s CPU      0.00s WALL (     110 calls)

     General routines
     calbec       :      0.03s CPU      0.00s WALL (     110 calls)
     fft          :      0.02s CPU      0.00s WALL (      17 calls)
     ffts         :      0.02s CPU      0.00s WALL (       5 calls)
     fftw         :      0.59s CPU      0.22s WALL (    1792 calls)

     Parallel routines

     PWSCF        :      4.92s CPU      1.82s WALL


   This run was terminated on:  12:19:27  14Aug2023            

=------------------------------------------------------------------------------=
   JOB DONE.
=------------------------------------------------------------------------------=
