
     Program PWSCF v.6.4.1 starts on 14Aug2023 at 12:19:28 

     This program is part of the open-source Quantum ESPRESSO suite
     for quantum simulation of materials; please cite
         "P. Giannozzi et al., J. Phys.:Condens. Matter 21 395502 (2009);
         "P. Giannozzi et al., J. Phys.:Condens. Matter 29 465901 (2017);
          URL http://www.quantum-espresso.org", 
     in publications or presentations arising from this work. More details at
     http://www.quantum-espresso.org/quote

     Parallel version (MPI & OpenMP), running on      16 processor cores
     Number of MPI processes:                 1
     Threads/MPI process:                    16

     MPI processes distributed on     1 nodes
     Waiting for input...
     Reading input from standard input

     Current dimensions of program PWSCF are:
     Max number of different atomic species (ntypx) = 10
     Max number of k-points (npk) =  40000
     Max angular momentum in pseudopotentials (lmaxx) =  3

     Subspace diagonalization in iterative solution of the eigenvalue problem:
     a serial algorithm will be used


     G-vector sticks info
     --------------------
     sticks:   dense  smooth     PW     G-vecs:    dense   smooth      PW
     Sum         421     421    121                24555    24555    4007



     bravais-lattice index     =            4
     lattice parameter (alat)  =       4.6620  a.u.
     unit-cell volume          =     308.9124 (a.u.)^3
     number of atoms/cell      =            4
     number of atomic types    =            1
     number of electrons       =        16.00
     number of Kohn-Sham states=            8
     kinetic-energy cutoff     =      70.0000  Ry
     charge density cutoff     =     280.0000  Ry
     convergence threshold     =      1.0E-06
     mixing beta               =       0.7000
     number of iterations used =            8  plain     mixing
     Exchange-correlation      = SLA PZ NOGX NOGC ( 1  1  0  0 0 0)

     celldm(1)=   4.661954  celldm(2)=   0.000000  celldm(3)=   3.520470
     celldm(4)=   0.000000  celldm(5)=   0.000000  celldm(6)=   0.000000

     crystal axes: (cart. coord. in units of alat)
               a(1) = (   1.000000   0.000000   0.000000 )  
               a(2) = (  -0.500000   0.866025   0.000000 )  
               a(3) = (   0.000000   0.000000   3.520470 )  

     reciprocal axes: (cart. coord. in units 2 pi/alat)
               b(1) = (  1.000000  0.577350 -0.000000 )  
               b(2) = (  0.000000  1.154701  0.000000 )  
               b(3) = (  0.000000 -0.000000  0.284053 )  


     PseudoPot. # 1 for C  read from file:
     .\C.pz-vbc.UPF
     MD5 check sum: f697e42eaa1e52b77fcf7925dd36a1dd
     Pseudo is Norm-conserving, Zval =  4.0
     Generated by new atomic code, or converted to UPF format
     Using radial grid of  269 points,  1 beta functions with: 
                l(1) =   0

     atomic species   valence    mass     pseudopotential
        C              4.00    12.01100     C ( 1.00)

      8 Sym. Ops., with inversion, found ( 4 have fractional translation)



   Cartesian axes

     site n.     atom                  positions (alat units)
         1           C   tau(   1) = (   0.0000000   0.0000000   2.6403527  )
         2           C   tau(   2) = (   0.0000000   0.0000000   0.8801176  )
         3           C   tau(   3) = (  -0.0000500   0.5773791   2.6403527  )
         4           C   tau(   4) = (   0.5000500   0.2886463   0.8801176  )

     number of k points=     6
                       cart. coord. in units 2pi/alat
        k(    1) = (   0.0000000   0.0000000   0.0000000), wk =   0.2500000
        k(    2) = (   0.0000000   0.0000000  -0.1420265), wk =   0.2500000
        k(    3) = (   0.0000000  -0.5773503   0.0000000), wk =   0.5000000
        k(    4) = (   0.0000000  -0.5773503  -0.1420265), wk =   0.5000000
        k(    5) = (  -0.5000000   0.2886751   0.0000000), wk =   0.2500000
        k(    6) = (  -0.5000000   0.2886751   0.1420265), wk =   0.2500000

     Dense  grid:    24555 G-vectors     FFT dimensions: (  25,  25,  90)

     Estimated max dynamical RAM per process >      19.91 MB

     Initial potential from superposition of free atoms

     starting charge   15.99989, renormalised to   16.00000
     Starting wfcs are   16 randomized atomic wfcs

     total cpu time spent up to now is        0.3 secs

     Self-consistent Calculation

     iteration #  1     ecut=    70.00 Ry     beta= 0.70
     Davidson diagonalization with overlap
     ethr =  1.00E-02,  avg # of iterations =  2.3

     total cpu time spent up to now is        0.6 secs

     total energy              =     -45.17727089 Ry
     Harris-Foulkes estimate   =     -45.51027067 Ry
     estimated scf accuracy    <       0.52745047 Ry

     iteration #  2     ecut=    70.00 Ry     beta= 0.70
     Davidson diagonalization with overlap
     ethr =  3.30E-03,  avg # of iterations =  2.0

     total cpu time spent up to now is        0.9 secs

     total energy              =     -45.26365875 Ry
     Harris-Foulkes estimate   =     -45.26482763 Ry
     estimated scf accuracy    <       0.00597794 Ry

     iteration #  3     ecut=    70.00 Ry     beta= 0.70
     Davidson diagonalization with overlap
     ethr =  3.74E-05,  avg # of iterations =  2.0

     total cpu time spent up to now is        1.2 secs

     total energy              =     -45.26418878 Ry
     Harris-Foulkes estimate   =     -45.26421471 Ry
     estimated scf accuracy    <       0.00040117 Ry

     iteration #  4     ecut=    70.00 Ry     beta= 0.70
     Davidson diagonalization with overlap
     ethr =  2.51E-06,  avg # of iterations =  2.3

     total cpu time spent up to now is        1.5 secs

     total energy              =     -45.26422979 Ry
     Harris-Foulkes estimate   =     -45.26423013 Ry
     estimated scf accuracy    <       0.00000201 Ry

     iteration #  5     ecut=    70.00 Ry     beta= 0.70
     Davidson diagonalization with overlap
     ethr =  1.26E-08,  avg # of iterations =  3.5

     total cpu time spent up to now is        1.9 secs

     End of self-consistent calculation

          k = 0.0000 0.0000 0.0000 (  3079 PWs)   bands (ev):

   -14.7750 -14.7404  -3.5298  -3.0567   1.4875   1.4892   1.4920   1.4936

          k = 0.0000 0.0000-0.1420 (  3068 PWs)   bands (ev):

   -14.7578 -14.7578  -3.3035  -3.3035   1.4876   1.4876   1.4920   1.4920

          k = 0.0000-0.5774 0.0000 (  3068 PWs)   bands (ev):

    -9.4984  -9.4872  -8.7192  -8.7103  -1.9465  -1.9426   1.9845   2.1255

          k = 0.0000-0.5774-0.1420 (  3068 PWs)   bands (ev):

    -9.4928  -9.4928  -8.7143  -8.7143  -1.9445  -1.9445   2.0573   2.0573

          k =-0.5000 0.2887 0.0000 (  3068 PWs)   bands (ev):

    -9.4976  -9.4863  -8.7210  -8.7121  -1.9450  -1.9411   1.9860   2.1270

          k =-0.5000 0.2887 0.1420 (  3068 PWs)   bands (ev):

    -9.4919  -9.4919  -8.7161  -8.7161  -1.9430  -1.9430   2.0589   2.0589

     highest occupied level (ev):     2.1270

!    total energy              =     -45.26423310 Ry
     Harris-Foulkes estimate   =     -45.26423317 Ry
     estimated scf accuracy    <       0.00000013 Ry

     The total energy is the sum of the following terms:

     one-electron contribution =     -34.64111596 Ry
     hartree contribution      =      23.87721223 Ry
     xc contribution           =     -13.92595682 Ry
     ewald contribution        =     -20.57437255 Ry

     convergence has been achieved in   5 iterations

     init_run     :      0.53s CPU      0.26s WALL (       1 calls)
     electrons    :      5.05s CPU      1.55s WALL (       1 calls)

     Called by init_run:
     wfcinit      :      0.45s CPU      0.19s WALL (       1 calls)
     potinit      :      0.02s CPU      0.01s WALL (       1 calls)
     hinit0       :      0.06s CPU      0.05s WALL (       1 calls)

     Called by electrons:
     c_bands      :      4.00s CPU      1.23s WALL (       5 calls)
     sum_band     :      0.75s CPU      0.28s WALL (       5 calls)
     v_of_rho     :      0.02s CPU      0.02s WALL (       6 calls)
     mix_rho      :      0.28s CPU      0.02s WALL (       5 calls)

     Called by c_bands:
     init_us_2    :      0.17s CPU      0.02s WALL (      66 calls)
     cegterg      :      3.86s CPU      1.20s WALL (      30 calls)

     Called by sum_band:

     Called by *egterg:
     h_psi        :      3.81s CPU      1.21s WALL (     109 calls)
     g_psi        :      0.06s CPU      0.02s WALL (      73 calls)
     cdiaghg      :      0.03s CPU      0.01s WALL (     103 calls)

     Called by h_psi:
     h_psi:pot    :      3.64s CPU      1.17s WALL (     109 calls)
     h_psi:calbec :      0.06s CPU      0.00s WALL (     109 calls)
     vloc_psi     :      3.58s CPU      1.17s WALL (     109 calls)
     add_vuspsi   :      0.00s CPU      0.00s WALL (     109 calls)

     General routines
     calbec       :      0.06s CPU      0.00s WALL (     109 calls)
     fft          :      0.00s CPU      0.00s WALL (      17 calls)
     ffts         :      0.00s CPU      0.00s WALL (       5 calls)
     fftw         :      0.92s CPU      0.25s WALL (    1784 calls)

     Parallel routines

     PWSCF        :      5.59s CPU      1.86s WALL


   This run was terminated on:  12:19:29  14Aug2023            

=------------------------------------------------------------------------------=
   JOB DONE.
=------------------------------------------------------------------------------=
