
     Program PWSCF v.6.4.1 starts on 14Aug2023 at 12:19:29 

     This program is part of the open-source Quantum ESPRESSO suite
     for quantum simulation of materials; please cite
         "P. Giannozzi et al., J. Phys.:Condens. Matter 21 395502 (2009);
         "P. Giannozzi et al., J. Phys.:Condens. Matter 29 465901 (2017);
          URL http://www.quantum-espresso.org", 
     in publications or presentations arising from this work. More details at
     http://www.quantum-espresso.org/quote

     Parallel version (MPI & OpenMP), running on      16 processor cores
     Number of MPI processes:                 1
     Threads/MPI process:                    16

     MPI processes distributed on     1 nodes
     Waiting for input...
     Reading input from standard input

     Current dimensions of program PWSCF are:
     Max number of different atomic species (ntypx) = 10
     Max number of k-points (npk) =  40000
     Max angular momentum in pseudopotentials (lmaxx) =  3

     Subspace diagonalization in iterative solution of the eigenvalue problem:
     a serial algorithm will be used


     G-vector sticks info
     --------------------
     sticks:   dense  smooth     PW     G-vecs:    dense   smooth      PW
     Sum         475     475    151                29883    29883    4869



     bravais-lattice index     =            4
     lattice parameter (alat)  =       4.6620  a.u.
     unit-cell volume          =     308.9124 (a.u.)^3
     number of atoms/cell      =            4
     number of atomic types    =            1
     number of electrons       =        16.00
     number of Kohn-Sham states=            8
     kinetic-energy cutoff     =      80.0000  Ry
     charge density cutoff     =     320.0000  Ry
     convergence threshold     =      1.0E-06
     mixing beta               =       0.7000
     number of iterations used =            8  plain     mixing
     Exchange-correlation      = SLA PZ NOGX NOGC ( 1  1  0  0 0 0)

     celldm(1)=   4.661954  celldm(2)=   0.000000  celldm(3)=   3.520470
     celldm(4)=   0.000000  celldm(5)=   0.000000  celldm(6)=   0.000000

     crystal axes: (cart. coord. in units of alat)
               a(1) = (   1.000000   0.000000   0.000000 )  
               a(2) = (  -0.500000   0.866025   0.000000 )  
               a(3) = (   0.000000   0.000000   3.520470 )  

     reciprocal axes: (cart. coord. in units 2 pi/alat)
               b(1) = (  1.000000  0.577350 -0.000000 )  
               b(2) = (  0.000000  1.154701  0.000000 )  
               b(3) = (  0.000000 -0.000000  0.284053 )  


     PseudoPot. # 1 for C  read from file:
     .\C.pz-vbc.UPF
     MD5 check sum: f697e42eaa1e52b77fcf7925dd36a1dd
     Pseudo is Norm-conserving, Zval =  4.0
     Generated by new atomic code, or converted to UPF format
     Using radial grid of  269 points,  1 beta functions with: 
                l(1) =   0

     atomic species   valence    mass     pseudopotential
        C              4.00    12.01100     C ( 1.00)

      8 Sym. Ops., with inversion, found ( 4 have fractional translation)



   Cartesian axes

     site n.     atom                  positions (alat units)
         1           C   tau(   1) = (   0.0000000   0.0000000   2.6403527  )
         2           C   tau(   2) = (   0.0000000   0.0000000   0.8801176  )
         3           C   tau(   3) = (  -0.0000500   0.5773791   2.6403527  )
         4           C   tau(   4) = (   0.5000500   0.2886463   0.8801176  )

     number of k points=     6
                       cart. coord. in units 2pi/alat
        k(    1) = (   0.0000000   0.0000000   0.0000000), wk =   0.2500000
        k(    2) = (   0.0000000   0.0000000  -0.1420265), wk =   0.2500000
        k(    3) = (   0.0000000  -0.5773503   0.0000000), wk =   0.5000000
        k(    4) = (   0.0000000  -0.5773503  -0.1420265), wk =   0.5000000
        k(    5) = (  -0.5000000   0.2886751   0.0000000), wk =   0.2500000
        k(    6) = (  -0.5000000   0.2886751   0.1420265), wk =   0.2500000

     Dense  grid:    29883 G-vectors     FFT dimensions: (  27,  27,  96)

     Estimated max dynamical RAM per process >      24.35 MB

     Initial potential from superposition of free atoms

     starting charge   15.99989, renormalised to   16.00000
     Starting wfcs are   16 randomized atomic wfcs

     total cpu time spent up to now is        0.4 secs

     Self-consistent Calculation

     iteration #  1     ecut=    80.00 Ry     beta= 0.70
     Davidson diagonalization with overlap
     ethr =  1.00E-02,  avg # of iterations =  2.3

     total cpu time spent up to now is        0.7 secs

     total energy              =     -45.18748211 Ry
     Harris-Foulkes estimate   =     -45.52248618 Ry
     estimated scf accuracy    <       0.53008014 Ry

     iteration #  2     ecut=    80.00 Ry     beta= 0.70
     Davidson diagonalization with overlap
     ethr =  3.31E-03,  avg # of iterations =  2.0

     total cpu time spent up to now is        1.0 secs

     total energy              =     -45.27480265 Ry
     Harris-Foulkes estimate   =     -45.27598671 Ry
     estimated scf accuracy    <       0.00599278 Ry

     iteration #  3     ecut=    80.00 Ry     beta= 0.70
     Davidson diagonalization with overlap
     ethr =  3.75E-05,  avg # of iterations =  2.0

     total cpu time spent up to now is        1.3 secs

     total energy              =     -45.27533111 Ry
     Harris-Foulkes estimate   =     -45.27535462 Ry
     estimated scf accuracy    <       0.00039634 Ry

     iteration #  4     ecut=    80.00 Ry     beta= 0.70
     Davidson diagonalization with overlap
     ethr =  2.48E-06,  avg # of iterations =  2.2

     total cpu time spent up to now is        1.6 secs

     total energy              =     -45.27536661 Ry
     Harris-Foulkes estimate   =     -45.27536668 Ry
     estimated scf accuracy    <       0.00000180 Ry

     iteration #  5     ecut=    80.00 Ry     beta= 0.70
     Davidson diagonalization with overlap
     ethr =  1.12E-08,  avg # of iterations =  3.5

     total cpu time spent up to now is        2.0 secs

     End of self-consistent calculation

          k = 0.0000 0.0000 0.0000 (  3779 PWs)   bands (ev):

   -14.7696 -14.7349  -3.5336  -3.0598   1.4762   1.4763   1.4806   1.4807

          k = 0.0000 0.0000-0.1420 (  3778 PWs)   bands (ev):

   -14.7523 -14.7523  -3.3071  -3.3071   1.4762   1.4762   1.4806   1.4806

          k = 0.0000-0.5774 0.0000 (  3710 PWs)   bands (ev):

    -9.4934  -9.4824  -8.7175  -8.7087  -1.9557  -1.9537   1.9792   2.1200

          k = 0.0000-0.5774-0.1420 (  3732 PWs)   bands (ev):

    -9.4879  -9.4879  -8.7133  -8.7133  -1.9551  -1.9551   2.0518   2.0518

          k =-0.5000 0.2887 0.0000 (  3710 PWs)   bands (ev):

    -9.4925  -9.4815  -8.7193  -8.7105  -1.9543  -1.9522   1.9807   2.1215

          k =-0.5000 0.2887 0.1420 (  3732 PWs)   bands (ev):

    -9.4871  -9.4871  -8.7151  -8.7151  -1.9536  -1.9536   2.0533   2.0533

     highest occupied level (ev):     2.1215

!    total energy              =     -45.27536969 Ry
     Harris-Foulkes estimate   =     -45.27536977 Ry
     estimated scf accuracy    <       0.00000015 Ry

     The total energy is the sum of the following terms:

     one-electron contribution =     -34.65920672 Ry
     hartree contribution      =      23.88450180 Ry
     xc contribution           =     -13.92629223 Ry
     ewald contribution        =     -20.57437255 Ry

     convergence has been achieved in   5 iterations

     init_run     :      0.47s CPU      0.28s WALL (       1 calls)
     electrons    :      5.50s CPU      1.61s WALL (       1 calls)

     Called by init_run:
     wfcinit      :      0.42s CPU      0.21s WALL (       1 calls)
     potinit      :      0.00s CPU      0.01s WALL (       1 calls)
     hinit0       :      0.05s CPU      0.05s WALL (       1 calls)

     Called by electrons:
     c_bands      :      4.20s CPU      1.27s WALL (       5 calls)
     sum_band     :      1.20s CPU      0.29s WALL (       5 calls)
     v_of_rho     :      0.06s CPU      0.02s WALL (       6 calls)
     mix_rho      :      0.02s CPU      0.02s WALL (       5 calls)

     Called by c_bands:
     init_us_2    :      0.05s CPU      0.02s WALL (      66 calls)
     cegterg      :      4.12s CPU      1.24s WALL (      30 calls)

     Called by sum_band:

     Called by *egterg:
     h_psi        :      4.14s CPU      1.26s WALL (     108 calls)
     g_psi        :      0.02s CPU      0.02s WALL (      72 calls)
     cdiaghg      :      0.02s CPU      0.01s WALL (     102 calls)

     Called by h_psi:
     h_psi:pot    :      4.08s CPU      1.23s WALL (     108 calls)
     h_psi:calbec :      0.00s CPU      0.01s WALL (     108 calls)
     vloc_psi     :      4.08s CPU      1.22s WALL (     108 calls)
     add_vuspsi   :      0.00s CPU      0.00s WALL (     108 calls)

     General routines
     calbec       :      0.00s CPU      0.01s WALL (     108 calls)
     fft          :      0.00s CPU      0.01s WALL (      17 calls)
     ffts         :      0.00s CPU      0.00s WALL (       5 calls)
     fftw         :      1.19s CPU      0.29s WALL (    1792 calls)

     Parallel routines

     PWSCF        :      5.98s CPU      1.97s WALL


   This run was terminated on:  12:19:31  14Aug2023            

=------------------------------------------------------------------------------=
   JOB DONE.
=------------------------------------------------------------------------------=
