
     Program PWSCF v.6.4.1 starts on 14Aug2023 at 12:19:31 

     This program is part of the open-source Quantum ESPRESSO suite
     for quantum simulation of materials; please cite
         "P. Giannozzi et al., J. Phys.:Condens. Matter 21 395502 (2009);
         "P. Giannozzi et al., J. Phys.:Condens. Matter 29 465901 (2017);
          URL http://www.quantum-espresso.org", 
     in publications or presentations arising from this work. More details at
     http://www.quantum-espresso.org/quote

     Parallel version (MPI & OpenMP), running on      16 processor cores
     Number of MPI processes:                 1
     Threads/MPI process:                    16

     MPI processes distributed on     1 nodes
     Waiting for input...
     Reading input from standard input

     Current dimensions of program PWSCF are:
     Max number of different atomic species (ntypx) = 10
     Max number of k-points (npk) =  40000
     Max angular momentum in pseudopotentials (lmaxx) =  3

     Subspace diagonalization in iterative solution of the eigenvalue problem:
     a serial algorithm will be used


     G-vector sticks info
     --------------------
     sticks:   dense  smooth     PW     G-vecs:    dense   smooth      PW
     Sum         547     547    163                35565    35565    5711



     bravais-lattice index     =            4
     lattice parameter (alat)  =       4.6620  a.u.
     unit-cell volume          =     308.9124 (a.u.)^3
     number of atoms/cell      =            4
     number of atomic types    =            1
     number of electrons       =        16.00
     number of Kohn-Sham states=            8
     kinetic-energy cutoff     =      90.0000  Ry
     charge density cutoff     =     360.0000  Ry
     convergence threshold     =      1.0E-06
     mixing beta               =       0.7000
     number of iterations used =            8  plain     mixing
     Exchange-correlation      = SLA PZ NOGX NOGC ( 1  1  0  0 0 0)

     celldm(1)=   4.661954  celldm(2)=   0.000000  celldm(3)=   3.520470
     celldm(4)=   0.000000  celldm(5)=   0.000000  celldm(6)=   0.000000

     crystal axes: (cart. coord. in units of alat)
               a(1) = (   1.000000   0.000000   0.000000 )  
               a(2) = (  -0.500000   0.866025   0.000000 )  
               a(3) = (   0.000000   0.000000   3.520470 )  

     reciprocal axes: (cart. coord. in units 2 pi/alat)
               b(1) = (  1.000000  0.577350 -0.000000 )  
               b(2) = (  0.000000  1.154701  0.000000 )  
               b(3) = (  0.000000 -0.000000  0.284053 )  


     PseudoPot. # 1 for C  read from file:
     .\C.pz-vbc.UPF
     MD5 check sum: f697e42eaa1e52b77fcf7925dd36a1dd
     Pseudo is Norm-conserving, Zval =  4.0
     Generated by new atomic code, or converted to UPF format
     Using radial grid of  269 points,  1 beta functions with: 
                l(1) =   0

     atomic species   valence    mass     pseudopotential
        C              4.00    12.01100     C ( 1.00)

      8 Sym. Ops., with inversion, found ( 4 have fractional translation)



   Cartesian axes

     site n.     atom                  positions (alat units)
         1           C   tau(   1) = (   0.0000000   0.0000000   2.6403527  )
         2           C   tau(   2) = (   0.0000000   0.0000000   0.8801176  )
         3           C   tau(   3) = (  -0.0000500   0.5773791   2.6403527  )
         4           C   tau(   4) = (   0.5000500   0.2886463   0.8801176  )

     number of k points=     6
                       cart. coord. in units 2pi/alat
        k(    1) = (   0.0000000   0.0000000   0.0000000), wk =   0.2500000
        k(    2) = (   0.0000000   0.0000000  -0.1420265), wk =   0.2500000
        k(    3) = (   0.0000000  -0.5773503   0.0000000), wk =   0.5000000
        k(    4) = (   0.0000000  -0.5773503  -0.1420265), wk =   0.5000000
        k(    5) = (  -0.5000000   0.2886751   0.0000000), wk =   0.2500000
        k(    6) = (  -0.5000000   0.2886751   0.1420265), wk =   0.2500000

     Dense  grid:    35565 G-vectors     FFT dimensions: (  30,  30, 100)

     Estimated max dynamical RAM per process >      29.45 MB

     Initial potential from superposition of free atoms

     starting charge   15.99989, renormalised to   16.00000
     Starting wfcs are   16 randomized atomic wfcs

     total cpu time spent up to now is        0.3 secs

     Self-consistent Calculation

     iteration #  1     ecut=    90.00 Ry     beta= 0.70
     Davidson diagonalization with overlap
     ethr =  1.00E-02,  avg # of iterations =  2.3

     total cpu time spent up to now is        0.7 secs

     total energy              =     -45.19102800 Ry
     Harris-Foulkes estimate   =     -45.52725964 Ry
     estimated scf accuracy    <       0.53180947 Ry

     iteration #  2     ecut=    90.00 Ry     beta= 0.70
     Davidson diagonalization with overlap
     ethr =  3.32E-03,  avg # of iterations =  2.0

     total cpu time spent up to now is        1.0 secs

     total energy              =     -45.27943575 Ry
     Harris-Foulkes estimate   =     -45.28062121 Ry
     estimated scf accuracy    <       0.00602204 Ry

     iteration #  3     ecut=    90.00 Ry     beta= 0.70
     Davidson diagonalization with overlap
     ethr =  3.76E-05,  avg # of iterations =  2.0

     total cpu time spent up to now is        1.4 secs

     total energy              =     -45.27997771 Ry
     Harris-Foulkes estimate   =     -45.28000326 Ry
     estimated scf accuracy    <       0.00039332 Ry

     iteration #  4     ecut=    90.00 Ry     beta= 0.70
     Davidson diagonalization with overlap
     ethr =  2.46E-06,  avg # of iterations =  2.2

     total cpu time spent up to now is        1.7 secs

     total energy              =     -45.28001405 Ry
     Harris-Foulkes estimate   =     -45.28001418 Ry
     estimated scf accuracy    <       0.00000205 Ry

     iteration #  5     ecut=    90.00 Ry     beta= 0.70
     Davidson diagonalization with overlap
     ethr =  1.28E-08,  avg # of iterations =  3.8

     total cpu time spent up to now is        2.1 secs

     End of self-consistent calculation

          k = 0.0000 0.0000 0.0000 (  4423 PWs)   bands (ev):

   -14.7670 -14.7323  -3.5353  -3.0612   1.4727   1.4737   1.4771   1.4781

          k = 0.0000 0.0000-0.1420 (  4382 PWs)   bands (ev):

   -14.7497 -14.7497  -3.3086  -3.3086   1.4734   1.4734   1.4778   1.4778

          k = 0.0000-0.5774 0.0000 (  4476 PWs)   bands (ev):

    -9.4913  -9.4803  -8.7180  -8.7093  -1.9598  -1.9565   1.9768   2.1174

          k = 0.0000-0.5774-0.1420 (  4444 PWs)   bands (ev):

    -9.4857  -9.4857  -8.7137  -8.7137  -1.9579  -1.9579   2.0493   2.0493

          k =-0.5000 0.2887 0.0000 (  4476 PWs)   bands (ev):

    -9.4905  -9.4795  -8.7198  -8.7111  -1.9583  -1.9551   1.9783   2.1189

          k =-0.5000 0.2887 0.1420 (  4444 PWs)   bands (ev):

    -9.4849  -9.4849  -8.7155  -8.7155  -1.9564  -1.9564   2.0509   2.0509

     highest occupied level (ev):     2.1189

!    total energy              =     -45.28001781 Ry
     Harris-Foulkes estimate   =     -45.28001788 Ry
     estimated scf accuracy    <       0.00000013 Ry

     The total energy is the sum of the following terms:

     one-electron contribution =     -34.66711090 Ry
     hartree contribution      =      23.88789441 Ry
     xc contribution           =     -13.92642877 Ry
     ewald contribution        =     -20.57437255 Ry

     convergence has been achieved in   5 iterations

     init_run     :      0.58s CPU      0.29s WALL (       1 calls)
     electrons    :      4.47s CPU      1.75s WALL (       1 calls)

     Called by init_run:
     wfcinit      :      0.52s CPU      0.21s WALL (       1 calls)
     potinit      :      0.00s CPU      0.01s WALL (       1 calls)
     hinit0       :      0.06s CPU      0.06s WALL (       1 calls)

     Called by electrons:
     c_bands      :      3.31s CPU      1.38s WALL (       5 calls)
     sum_band     :      0.89s CPU      0.31s WALL (       5 calls)
     v_of_rho     :      0.11s CPU      0.02s WALL (       6 calls)
     mix_rho      :      0.16s CPU      0.03s WALL (       5 calls)

     Called by c_bands:
     init_us_2    :      0.08s CPU      0.03s WALL (      66 calls)
     cegterg      :      3.16s CPU      1.34s WALL (      30 calls)

     Called by sum_band:

     Called by *egterg:
     h_psi        :      3.22s CPU      1.34s WALL (     110 calls)
     g_psi        :      0.06s CPU      0.02s WALL (      74 calls)
     cdiaghg      :      0.00s CPU      0.01s WALL (     104 calls)

     Called by h_psi:
     h_psi:pot    :      3.08s CPU      1.29s WALL (     110 calls)
     h_psi:calbec :      0.03s CPU      0.01s WALL (     110 calls)
     vloc_psi     :      3.02s CPU      1.27s WALL (     110 calls)
     add_vuspsi   :      0.03s CPU      0.01s WALL (     110 calls)

     General routines
     calbec       :      0.03s CPU      0.01s WALL (     110 calls)
     fft          :      0.00s CPU      0.00s WALL (      17 calls)
     ffts         :      0.00s CPU      0.00s WALL (       5 calls)
     fftw         :      0.83s CPU      0.35s WALL (    1794 calls)

     Parallel routines

     PWSCF        :      5.11s CPU      2.10s WALL


   This run was terminated on:  12:19:34  14Aug2023            

=------------------------------------------------------------------------------=
   JOB DONE.
=------------------------------------------------------------------------------=
