
     Program PWSCF v.7.0 starts on 25Aug2023 at  0:34:19 

     This program is part of the open-source Quantum ESPRESSO suite
     for quantum simulation of materials; please cite
         "P. Giannozzi et al., J. Phys.:Condens. Matter 21 395502 (2009);
         "P. Giannozzi et al., J. Phys.:Condens. Matter 29 465901 (2017);
         "P. Giannozzi et al., J. Chem. Phys. 152 154105 (2020);
          URL http://www.quantum-espresso.org", 
     in publications or presentations arising from this work. More details at
     http://www.quantum-espresso.org/quote

     Serial version
     4927 MiB available memory on the printing compute node when the environment starts

     Waiting for input...
     Reading input from standard input

     Current dimensions of program PWSCF are:
     Max number of different atomic species (ntypx) = 10
     Max number of k-points (npk) =  40000
     Max angular momentum in pseudopotentials (lmaxx) =  4

     G-vector sticks info
     --------------------
     sticks:   dense  smooth     PW     G-vecs:    dense   smooth      PW
     Sum         475     475    151                51311    51311    8639

     Using Slab Decomposition



     bravais-lattice index     =            4
     lattice parameter (alat)  =       4.6561  a.u.
     unit-cell volume          =     532.1899 (a.u.)^3
     number of atoms/cell      =            2
     number of atomic types    =            1
     number of electrons       =         8.00
     number of Kohn-Sham states=            8
     kinetic-energy cutoff     =      80.0000  Ry
     charge density cutoff     =     320.0000  Ry
     scf convergence threshold =      1.0E-09
     mixing beta               =       0.7000
     number of iterations used =            8  plain     mixing
     energy convergence thresh.=      1.0E-05
     force convergence thresh. =      1.0E-04
     press convergence thresh. =      5.0E-02
     Exchange-correlation= LDA
                           (   1   1   0   0   0   0   0)
     nstep                     =           50


     celldm(1)=   4.656107  celldm(2)=   0.000000  celldm(3)=   6.087896
     celldm(4)=   0.000000  celldm(5)=   0.000000  celldm(6)=   0.000000

     crystal axes: (cart. coord. in units of alat)
               a(1) = (   1.000000   0.000000   0.000000 )  
               a(2) = (  -0.500000   0.866025   0.000000 )  
               a(3) = (   0.000000   0.000000   6.087896 )  

     reciprocal axes: (cart. coord. in units 2 pi/alat)
               b(1) = (  1.000000  0.577350 -0.000000 )  
               b(2) = (  0.000000  1.154701  0.000000 )  
               b(3) = (  0.000000 -0.000000  0.164260 )  


     PseudoPot. # 1 for C  read from file:
     ../pseudo/C.pz-n-rrkjus_psl.0.1.UPF
     MD5 check sum: a3cecbabebb5b3a1aff122f23eb09bb0
     Pseudo is Ultrasoft + core correction, Zval =  4.0
     Generated using "atomic" code by A. Dal Corso  v.5.0.2 svn rev. 9415
     Using radial grid of 1073 points,  4 beta functions with: 
                l(1) =   0
                l(2) =   0
                l(3) =   1
                l(4) =   1
     Q(r) pseudized with 0 coefficients 


     atomic species   valence    mass     pseudopotential
        C              4.00    12.01070     C ( 1.00)

     24 Sym. Ops., with inversion, found



   Cartesian axes

     site n.     atom                  positions (alat units)
         1           C   tau(   1) = (   0.0000000   0.5773503   3.0439478  )
         2           C   tau(   2) = (   0.5000000   0.2886751   3.0439478  )

     number of k points=    19  Marzari-Vanderbilt smearing, width (Ry)=  0.0200
                       cart. coord. in units 2pi/alat
        k(    1) = (   0.0000000   0.0000000   0.0000000), wk =   0.0138889
        k(    2) = (   0.0000000   0.0962250   0.0000000), wk =   0.0833333
        k(    3) = (   0.0000000   0.1924501   0.0000000), wk =   0.0833333
        k(    4) = (   0.0000000   0.2886751   0.0000000), wk =   0.0833333
        k(    5) = (   0.0000000   0.3849002   0.0000000), wk =   0.0833333
        k(    6) = (   0.0000000   0.4811252   0.0000000), wk =   0.0833333
        k(    7) = (   0.0000000  -0.5773503   0.0000000), wk =   0.0416667
        k(    8) = (   0.0833333   0.1443376   0.0000000), wk =   0.0833333
        k(    9) = (   0.0833333   0.2405626   0.0000000), wk =   0.1666667
        k(   10) = (   0.0833333   0.3367877   0.0000000), wk =   0.1666667
        k(   11) = (   0.0833333   0.4330127   0.0000000), wk =   0.1666667
        k(   12) = (   0.0833333   0.5292377   0.0000000), wk =   0.1666667
        k(   13) = (   0.1666667   0.2886751   0.0000000), wk =   0.0833333
        k(   14) = (   0.1666667   0.3849002   0.0000000), wk =   0.1666667
        k(   15) = (   0.1666667   0.4811252   0.0000000), wk =   0.1666667
        k(   16) = (   0.1666667   0.5773503   0.0000000), wk =   0.0833333
        k(   17) = (   0.2500000   0.4330127   0.0000000), wk =   0.0833333
        k(   18) = (   0.2500000   0.5292377   0.0000000), wk =   0.1666667
        k(   19) = (   0.3333333   0.5773503   0.0000000), wk =   0.0277778

     Dense  grid:    51311 G-vectors     FFT dimensions: (  27,  27, 162)

     Estimated max dynamical RAM per process >      86.68 MB

     Check: negative core charge=   -0.000001

     Initial potential from superposition of free atoms

     starting charge       7.9999, renormalised to       8.0000

     negative rho (up, down):  5.357E-05 0.000E+00
     Starting wfcs are    8 randomized atomic wfcs

     total cpu time spent up to now is        2.1 secs

     Self-consistent Calculation

     iteration #  1     ecut=    80.00 Ry     beta= 0.70
     Davidson diagonalization with overlap
     ethr =  1.00E-02,  avg # of iterations =  8.5

     total cpu time spent up to now is        4.5 secs

     total energy              =     -23.89369544 Ry
     estimated scf accuracy    <       0.13643661 Ry

     iteration #  2     ecut=    80.00 Ry     beta= 0.70
     Davidson diagonalization with overlap
     ethr =  1.71E-03,  avg # of iterations =  4.2

     negative rho (up, down):  2.543E-07 0.000E+00

     total cpu time spent up to now is        6.1 secs

     total energy              =     -23.92165952 Ry
     estimated scf accuracy    <       0.00818867 Ry

     iteration #  3     ecut=    80.00 Ry     beta= 0.70
     Davidson diagonalization with overlap
     c_bands:  1 eigenvalues not converged
     c_bands:  1 eigenvalues not converged
     ethr =  1.02E-04,  avg # of iterations = 16.2

     negative rho (up, down):  2.719E-06 0.000E+00

     total cpu time spent up to now is        9.8 secs

     total energy              =     -23.92979892 Ry
     estimated scf accuracy    <       0.00159918 Ry

     iteration #  4     ecut=    80.00 Ry     beta= 0.70
     Davidson diagonalization with overlap
     ethr =  2.00E-05,  avg # of iterations =  6.9

     negative rho (up, down):  2.840E-05 0.000E+00

     total cpu time spent up to now is       11.8 secs

     total energy              =     -23.93019063 Ry
     estimated scf accuracy    <       0.00101420 Ry

     iteration #  5     ecut=    80.00 Ry     beta= 0.70
     Davidson diagonalization with overlap
     ethr =  1.27E-05,  avg # of iterations =  3.2

     negative rho (up, down):  2.351E-05 0.000E+00

     total cpu time spent up to now is       13.3 secs

     total energy              =     -23.93030522 Ry
     estimated scf accuracy    <       0.00001939 Ry

     iteration #  6     ecut=    80.00 Ry     beta= 0.70
     Davidson diagonalization with overlap
     c_bands:  1 eigenvalues not converged
     ethr =  2.42E-07,  avg # of iterations =  9.4

     negative rho (up, down):  2.487E-05 0.000E+00

     total cpu time spent up to now is       16.4 secs

     total energy              =     -23.93037085 Ry
     estimated scf accuracy    <       0.00001060 Ry

     iteration #  7     ecut=    80.00 Ry     beta= 0.70
     Davidson diagonalization with overlap
     ethr =  1.32E-07,  avg # of iterations =  1.9

     negative rho (up, down):  2.591E-05 0.000E+00

     total cpu time spent up to now is       17.7 secs

     total energy              =     -23.93037044 Ry
     estimated scf accuracy    <       0.00000249 Ry

     iteration #  8     ecut=    80.00 Ry     beta= 0.70
     Davidson diagonalization with overlap
     ethr =  3.12E-08,  avg # of iterations =  2.9

     negative rho (up, down):  2.626E-05 0.000E+00

     total cpu time spent up to now is       19.0 secs

     total energy              =     -23.93037082 Ry
     estimated scf accuracy    <       0.00000041 Ry

     iteration #  9     ecut=    80.00 Ry     beta= 0.70
     Davidson diagonalization with overlap
     ethr =  5.16E-09,  avg # of iterations =  4.6

     negative rho (up, down):  2.641E-05 0.000E+00

     total cpu time spent up to now is       20.7 secs

     total energy              =     -23.93037110 Ry
     estimated scf accuracy    <       0.00000003 Ry

     iteration # 10     ecut=    80.00 Ry     beta= 0.70
     Davidson diagonalization with overlap
     ethr =  3.26E-10,  avg # of iterations =  3.4

     negative rho (up, down):  2.647E-05 0.000E+00

     total cpu time spent up to now is       22.1 secs

     total energy              =     -23.93037111 Ry
     estimated scf accuracy    <          3.0E-09 Ry

     iteration # 11     ecut=    80.00 Ry     beta= 0.70
     Davidson diagonalization with overlap
     ethr =  3.76E-11,  avg # of iterations =  3.7

     negative rho (up, down):  2.657E-05 0.000E+00

     total cpu time spent up to now is       23.5 secs

     End of self-consistent calculation

          k = 0.0000 0.0000 0.0000 (  6489 PWs)   bands (ev):

   -21.3324  -9.6698  -5.0500  -5.0500   1.3577   2.3714   2.6748   4.5822

          k = 0.0000 0.0962 0.0000 (  6493 PWs)   bands (ev):

   -21.1693  -9.4730  -5.6853  -5.3887   1.5797   2.5961   2.9018   4.8050

          k = 0.0000 0.1925 0.0000 (  6481 PWs)   bands (ev):

   -20.6817  -8.8881  -7.2922  -6.1815   2.2455   3.2680   3.5836   5.4692

          k = 0.0000 0.2887 0.0000 (  6429 PWs)   bands (ev):

   -19.8753  -9.3614  -7.9338  -7.0612   3.3526   4.3579   4.7183   5.2201

          k = 0.0000 0.3849 0.0000 (  6414 PWs)   bands (ev):

   -18.7613 -11.5425  -7.7944  -6.6597   2.8648   4.8866   5.7688   5.9692

          k = 0.0000 0.4811 0.0000 (  6418 PWs)   bands (ev):

   -17.3664 -13.6317  -8.2671  -5.2271   0.7243   5.5274   6.8876   7.9416

          k = 0.0000-0.5774 0.0000 (  6386 PWs)   bands (ev):

   -16.0565 -15.1809  -8.4294  -4.3715  -0.3832   5.4548   9.1940   9.2870

          k = 0.0833 0.1443 0.0000 (  6473 PWs)   bands (ev):

   -20.8440  -9.0821  -6.6955  -6.0669   2.0238   3.0445   3.3564   5.2491

          k = 0.0833 0.2406 0.0000 (  6444 PWs)   bands (ev):

   -20.1970  -8.3763  -8.3113  -7.0637   2.9114   3.9364   4.2655   6.0060

          k = 0.0833 0.3368 0.0000 (  6420 PWs)   bands (ev):

   -19.2368 -10.4261  -7.9465  -7.1908   3.8817   4.2373   5.2931   5.6269

          k = 0.0833 0.4330 0.0000 (  6423 PWs)   bands (ev):

   -17.9803 -12.5330  -8.5788  -5.8039   1.6801   5.9661   6.3681   7.0437

          k = 0.0833 0.5292 0.0000 (  6418 PWs)   bands (ev):

   -16.4904 -14.4789  -8.9059  -4.4825  -0.0977   6.1757   8.1726   9.1510

          k = 0.1667 0.2887 0.0000 (  6421 PWs)   bands (ev):

   -19.3963  -9.6746  -8.4292  -7.3705   4.0190   4.3393   5.0429   5.4024

          k = 0.1667 0.3849 0.0000 (  6439 PWs)   bands (ev):

   -18.2929 -11.3859  -9.4774  -6.1120   2.4005   5.5586   6.5597   6.9913

          k = 0.1667 0.4811 0.0000 (  6433 PWs)   bands (ev):

   -16.9179 -13.2938 -10.0432  -4.6767   0.4870   7.4990   8.0462   8.3644

          k = 0.1667 0.5774 0.0000 (  6408 PWs)   bands (ev):

   -15.6435 -14.7679 -10.2248  -3.7745  -0.5887   7.9470   9.4922   9.7334

          k = 0.2500 0.4330 0.0000 (  6437 PWs)   bands (ev):

   -17.0675 -12.3848 -10.9768  -4.7633   0.7958   7.2928   8.0472   8.8032

          k = 0.2500 0.5292 0.0000 (  6421 PWs)   bands (ev):

   -15.6373 -13.8155 -11.6741  -3.3699  -0.7230   8.6895   9.3549  10.1593

          k = 0.3333 0.5774 0.0000 (  6408 PWs)   bands (ev):

   -14.4101 -14.4101 -12.6233  -2.0135  -2.0135   8.3669  10.8616  10.8626

     the Fermi energy is    -1.9756 ev

!    total energy              =     -23.93037111 Ry
     estimated scf accuracy    <          8.0E-10 Ry
     smearing contrib. (-TS)   =      -0.00018232 Ry
     internal energy E=F+TS    =     -23.93018879 Ry

     The total energy is F=E-TS. E is the sum of the following terms:
     one-electron contribution =    -157.40510658 Ry
     hartree contribution      =      80.10052874 Ry
     xc contribution           =      -8.25525806 Ry
     ewald contribution        =      61.62964712 Ry

     convergence has been achieved in  11 iterations

     negative rho (up, down):  2.657E-05 0.000E+00

     Forces acting on atoms (cartesian axes, Ry/au):

     atom    1 type  1   force =     0.00000000    0.00000000    0.00000000
     atom    2 type  1   force =     0.00000000    0.00000000    0.00000000

     Total force =     0.000000     Total SCF correction =     0.000000


     Computing stress (Cartesian axis) and pressure


     negative rho (up, down):  2.657E-05 0.000E+00
          total   stress  (Ry/bohr**3)                   (kbar)     P=      -13.89
  -0.00014138   0.00000000   0.00000000          -20.80        0.00        0.00
   0.00000000  -0.00014138  -0.00000000            0.00      -20.80       -0.00
  -0.00000000   0.00000000  -0.00000049           -0.00        0.00       -0.07


     BFGS Geometry Optimization
     Energy error            =      0.0E+00 Ry
     Gradient error          =      0.0E+00 Ry/Bohr
     Cell gradient error     =      2.1E+01 kbar

     number of scf cycles    =   1
     number of bfgs steps    =   0

     enthalpy           new  =     -23.9303711144 Ry

     new trust radius        =       0.0163076528 bohr
     new conv_thr            =       0.0000000010 Ry

     new unit-cell volume =    528.43448 a.u.^3 (    78.30591 Ang^3 )
     density =      0.50939 g/cm^3

CELL_PARAMETERS (alat=  4.65610675)
   0.996465499   0.000000000   0.000000000
  -0.498232749   0.862964436   0.000000000
   0.000000000   0.000000000   6.087895618

ATOMIC_POSITIONS (crystal)
C             0.3333333330        0.6666666660        0.5000000000
C             0.6666666660        0.3333333330        0.5000000000



     Writing config-only to output data dir ../tmp/gr.save/
     NEW-OLD atomic charge density approx. for the potential

     Check: negative core charge=   -0.000001

     negative rho (up, down):  2.813E-05 0.000E+00
     extrapolated charge    7.94315, renormalised to    8.00000

     total cpu time spent up to now is       28.1 secs

     Self-consistent Calculation

     iteration #  1     ecut=    80.00 Ry     beta= 0.70
     Davidson diagonalization with overlap
     c_bands:  2 eigenvalues not converged
     c_bands:  1 eigenvalues not converged
     c_bands:  1 eigenvalues not converged
     c_bands:  1 eigenvalues not converged
     c_bands:  1 eigenvalues not converged
     c_bands:  1 eigenvalues not converged
     c_bands:  1 eigenvalues not converged
     ethr =  1.00E-06,  avg # of iterations = 14.5

     negative rho (up, down):  3.000E-05 0.000E+00

     total cpu time spent up to now is       32.1 secs

     total energy              =     -23.92938569 Ry
     estimated scf accuracy    <       0.00073969 Ry

     iteration #  2     ecut=    80.00 Ry     beta= 0.70
     Davidson diagonalization with overlap
     c_bands:  1 eigenvalues not converged
     c_bands:  1 eigenvalues not converged
     ethr =  9.25E-06,  avg # of iterations = 13.0

     negative rho (up, down):  2.900E-05 0.000E+00

     total cpu time spent up to now is       35.3 secs

     total energy              =     -23.93082361 Ry
     estimated scf accuracy    <       0.00063150 Ry

     iteration #  3     ecut=    80.00 Ry     beta= 0.70
     Davidson diagonalization with overlap
     ethr =  7.89E-06,  avg # of iterations =  1.2

     negative rho (up, down):  2.906E-05 0.000E+00

     total cpu time spent up to now is       36.4 secs

     total energy              =     -23.93076920 Ry
     estimated scf accuracy    <       0.00018613 Ry

     iteration #  4     ecut=    80.00 Ry     beta= 0.70
     Davidson diagonalization with overlap
     ethr =  2.33E-06,  avg # of iterations =  2.4

     negative rho (up, down):  2.885E-05 0.000E+00

     total cpu time spent up to now is       37.6 secs

     total energy              =     -23.93076749 Ry
     estimated scf accuracy    <       0.00004685 Ry

     iteration #  5     ecut=    80.00 Ry     beta= 0.70
     Davidson diagonalization with overlap
     c_bands:  1 eigenvalues not converged
     ethr =  5.86E-07,  avg # of iterations =  3.8

     negative rho (up, down):  2.862E-05 0.000E+00

     total cpu time spent up to now is       39.0 secs

     total energy              =     -23.93077522 Ry
     estimated scf accuracy    <       0.00000707 Ry

     iteration #  6     ecut=    80.00 Ry     beta= 0.70
     Davidson diagonalization with overlap
     ethr =  8.83E-08,  avg # of iterations =  4.5

     negative rho (up, down):  2.865E-05 0.000E+00

     total cpu time spent up to now is       40.5 secs

     total energy              =     -23.93077793 Ry
     estimated scf accuracy    <       0.00000109 Ry

     iteration #  7     ecut=    80.00 Ry     beta= 0.70
     Davidson diagonalization with overlap
     ethr =  1.36E-08,  avg # of iterations =  3.8

     negative rho (up, down):  2.872E-05 0.000E+00

     total cpu time spent up to now is       42.0 secs

     total energy              =     -23.93077920 Ry
     estimated scf accuracy    <       0.00000099 Ry

     iteration #  8     ecut=    80.00 Ry     beta= 0.70
     Davidson diagonalization with overlap
     ethr =  1.24E-08,  avg # of iterations =  1.3

     negative rho (up, down):  2.843E-05 0.000E+00

     total cpu time spent up to now is       43.1 secs

     total energy              =     -23.93077835 Ry
     estimated scf accuracy    <       0.00000207 Ry

     iteration #  9     ecut=    80.00 Ry     beta= 0.70
     Davidson diagonalization with overlap
     ethr =  1.24E-08,  avg # of iterations =  3.9

     negative rho (up, down):  2.826E-05 0.000E+00

     total cpu time spent up to now is       44.6 secs

     total energy              =     -23.93077860 Ry
     estimated scf accuracy    <       0.00000116 Ry

     iteration # 10     ecut=    80.00 Ry     beta= 0.70
     Davidson diagonalization with overlap
     ethr =  1.24E-08,  avg # of iterations =  1.0

     negative rho (up, down):  2.813E-05 0.000E+00

     total cpu time spent up to now is       45.7 secs

     total energy              =     -23.93077845 Ry
     estimated scf accuracy    <       0.00000036 Ry

     iteration # 11     ecut=    80.00 Ry     beta= 0.70
     Davidson diagonalization with overlap
     ethr =  4.55E-09,  avg # of iterations =  1.7

     negative rho (up, down):  2.813E-05 0.000E+00

     total cpu time spent up to now is       46.9 secs

     total energy              =     -23.93077846 Ry
     estimated scf accuracy    <       0.00000008 Ry

     iteration # 12     ecut=    80.00 Ry     beta= 0.70
     Davidson diagonalization with overlap
     ethr =  1.06E-09,  avg # of iterations =  3.5

     negative rho (up, down):  2.822E-05 0.000E+00

     total cpu time spent up to now is       48.4 secs

     total energy              =     -23.93077848 Ry
     estimated scf accuracy    <       0.00000008 Ry

     iteration # 13     ecut=    80.00 Ry     beta= 0.70
     Davidson diagonalization with overlap
     ethr =  9.82E-10,  avg # of iterations =  1.1

     negative rho (up, down):  2.827E-05 0.000E+00

     total cpu time spent up to now is       49.6 secs

     total energy              =     -23.93077847 Ry
     estimated scf accuracy    <       0.00000002 Ry

     iteration # 14     ecut=    80.00 Ry     beta= 0.70
     Davidson diagonalization with overlap
     ethr =  2.54E-10,  avg # of iterations =  2.3

     negative rho (up, down):  2.831E-05 0.000E+00

     total cpu time spent up to now is       51.0 secs

     total energy              =     -23.93077849 Ry
     estimated scf accuracy    <          7.1E-09 Ry

     iteration # 15     ecut=    80.00 Ry     beta= 0.70
     Davidson diagonalization with overlap
     ethr =  8.85E-11,  avg # of iterations =  4.1

     negative rho (up, down):  2.822E-05 0.000E+00

     total cpu time spent up to now is       52.8 secs

     total energy              =     -23.93077846 Ry
     estimated scf accuracy    <       0.00000005 Ry

     iteration # 16     ecut=    80.00 Ry     beta= 0.70
     Davidson diagonalization with overlap
     ethr =  8.85E-11,  avg # of iterations =  4.1

     negative rho (up, down):  2.820E-05 0.000E+00

     total cpu time spent up to now is       55.1 secs

     total energy              =     -23.93077848 Ry
     estimated scf accuracy    <          8.7E-09 Ry

     iteration # 17     ecut=    80.00 Ry     beta= 0.70
     Davidson diagonalization with overlap
     ethr =  8.85E-11,  avg # of iterations =  1.1

     negative rho (up, down):  2.823E-05 0.000E+00

     total cpu time spent up to now is       56.4 secs

     total energy              =     -23.93077848 Ry
     estimated scf accuracy    <       0.00000002 Ry

     iteration # 18     ecut=    80.00 Ry     beta= 0.70
     Davidson diagonalization with overlap
     ethr =  8.85E-11,  avg # of iterations =  1.1

     negative rho (up, down):  2.827E-05 0.000E+00

     total cpu time spent up to now is       57.6 secs

     total energy              =     -23.93077848 Ry
     estimated scf accuracy    <          3.9E-09 Ry

     iteration # 19     ecut=    80.00 Ry     beta= 0.70
     Davidson diagonalization with overlap
     ethr =  4.84E-11,  avg # of iterations =  4.1

     negative rho (up, down):  2.826E-05 0.000E+00

     total cpu time spent up to now is       59.3 secs

     total energy              =     -23.93077848 Ry
     estimated scf accuracy    <       0.00000003 Ry

     iteration # 20     ecut=    80.00 Ry     beta= 0.70
     Davidson diagonalization with overlap
     ethr =  4.84E-11,  avg # of iterations =  1.0

     negative rho (up, down):  2.824E-05 0.000E+00

     total cpu time spent up to now is       60.4 secs

     total energy              =     -23.93077847 Ry
     estimated scf accuracy    <       0.00000002 Ry

     iteration # 21     ecut=    80.00 Ry     beta= 0.70
     Davidson diagonalization with overlap
     ethr =  4.84E-11,  avg # of iterations =  3.8

     negative rho (up, down):  2.823E-05 0.000E+00

     total cpu time spent up to now is       61.8 secs

     End of self-consistent calculation

          k = 0.0000 0.0000 0.0000 (  6489 PWs)   bands (ev):

   -21.3762  -9.7007  -5.0051  -5.0051   1.3676   2.3847   2.6917   4.5971

          k =-0.0000 0.0966 0.0000 (  6493 PWs)   bands (ev):

   -21.2121  -9.5023  -5.6431  -5.3476   1.5910   2.6110   2.9205   4.8214

          k =-0.0000 0.1931 0.0000 (  6481 PWs)   bands (ev):

   -20.7216  -8.9122  -7.2578  -6.1487   2.2614   3.2879   3.6070   5.4910

          k =-0.0000 0.2897 0.0000 (  6429 PWs)   bands (ev):

   -19.9101  -9.3383  -7.9494  -7.0372   3.3763   4.3882   4.7504   5.3285

          k =-0.0000 0.3863 0.0000 (  6414 PWs)   bands (ev):

   -18.7888 -11.5324  -7.7772  -6.6637   2.9477   4.9223   5.9069   6.0092

          k =-0.0000 0.4828 0.0000 (  6418 PWs)   bands (ev):

   -17.3837 -13.6357  -8.2543  -5.2168   0.7829   5.6715   6.9381   7.9973

          k = 0.0000-0.5794 0.0000 (  6386 PWs)   bands (ev):

   -16.0517 -15.2084  -8.4180  -4.3514  -0.3379   5.6014   9.2611   9.3532

          k = 0.0836 0.1448 0.0000 (  6473 PWs)   bands (ev):

   -20.8848  -9.1079  -6.6573  -6.0331   2.0382   3.0628   3.3783   5.2690

          k = 0.0836 0.2414 0.0000 (  6444 PWs)   bands (ev):

   -20.2338  -8.3463  -8.3303  -7.0393   2.9320   3.9613   4.2940   6.0947

          k = 0.0836 0.3380 0.0000 (  6420 PWs)   bands (ev):

   -19.2674 -10.4083  -7.9295  -7.1998   3.9773   4.2673   5.3296   5.6651

          k = 0.0836 0.4345 0.0000 (  6423 PWs)   bands (ev):

   -18.0025 -12.5287  -8.5668  -5.7997   1.7511   6.0146   6.5085   7.0926

          k = 0.0836 0.5311 0.0000 (  6418 PWs)   bands (ev):

   -16.4988 -14.4911  -8.8966  -4.4643  -0.0474   6.3248   8.2316   9.2182

          k = 0.1673 0.2897 0.0000 (  6421 PWs)   bands (ev):

   -19.4280  -9.6480  -8.4183  -7.3812   4.0474   4.4433   5.0760   5.4390

          k = 0.1673 0.3863 0.0000 (  6439 PWs)   bands (ev):

   -18.3173 -11.3701  -9.4733  -6.1110   2.4830   5.5981   6.6046   7.0393

          k = 0.1673 0.4828 0.0000 (  6433 PWs)   bands (ev):

   -16.9322 -13.2930 -10.0412  -4.6615   0.5481   7.5547   8.1998   8.4249

          k = 0.1673 0.5794 0.0000 (  6408 PWs)   bands (ev):

   -15.6375 -14.7891 -10.2236  -3.7492  -0.5402   8.1046   9.5663   9.8071

          k = 0.2509 0.4345 0.0000 (  6437 PWs)   bands (ev):

   -17.0834 -12.3682 -10.9894  -4.7494   0.8631   7.3450   8.1053   8.8648

          k = 0.2509 0.5311 0.0000 (  6421 PWs)   bands (ev):

   -15.6402 -13.8134 -11.6891  -3.3419  -0.6712   8.7522   9.4259  10.3192

          k = 0.3345 0.5794 0.0000 (  6408 PWs)   bands (ev):

   -14.4002 -14.4002 -12.6603  -1.9725  -1.9725   8.4236  10.9770  10.9771

     the Fermi energy is    -1.9346 ev

!    total energy              =     -23.93077848 Ry
     estimated scf accuracy    <          8.2E-11 Ry
     smearing contrib. (-TS)   =      -0.00018232 Ry
     internal energy E=F+TS    =     -23.93059615 Ry

     The total energy is F=E-TS. E is the sum of the following terms:
     one-electron contribution =    -158.55220835 Ry
     hartree contribution      =      80.68466317 Ry
     xc contribution           =      -8.27148599 Ry
     ewald contribution        =      62.20843503 Ry

     convergence has been achieved in  21 iterations

     negative rho (up, down):  2.823E-05 0.000E+00

     Forces acting on atoms (cartesian axes, Ry/au):

     atom    1 type  1   force =     0.00000000    0.00000000    0.00000000
     atom    2 type  1   force =    -0.00000000   -0.00000000    0.00000000

     Total force =     0.000000     Total SCF correction =     0.000000


     Computing stress (Cartesian axis) and pressure


     negative rho (up, down):  2.823E-05 0.000E+00
          total   stress  (Ry/bohr**3)                   (kbar)     P=       -7.38
  -0.00007517   0.00000000   0.00000000          -11.06        0.00        0.00
   0.00000000  -0.00007517   0.00000000            0.00      -11.06        0.00
   0.00000000  -0.00000000  -0.00000028            0.00       -0.00       -0.04

     Energy error            =      4.1E-04 Ry
     Gradient error          =      1.6E-25 Ry/Bohr
     Cell gradient error     =      1.1E+01 kbar

     number of scf cycles    =   2
     number of bfgs steps    =   1

     enthalpy           old  =     -23.9303711144 Ry
     enthalpy           new  =     -23.9307784754 Ry

     CASE: enthalpy          _new < enthalpy          _old

     new trust radius        =       0.0179384180 bohr
     new conv_thr            =            1.0E-11 Ry

     new unit-cell volume =    524.31889 a.u.^3 (    77.69604 Ang^3 )
     density =      0.51339 g/cm^3

CELL_PARAMETERS (alat=  4.65610675)
   0.992577547   0.000000000   0.000000000
  -0.496288774   0.859597371   0.000000000
   0.000000000   0.000000000   6.087895618

ATOMIC_POSITIONS (crystal)
C             0.3333333330        0.6666666660        0.5000000000
C             0.6666666660        0.3333333330        0.5000000000



     Writing config-only to output data dir ../tmp/gr.save/
     NEW-OLD atomic charge density approx. for the potential

     negative rho (up, down):  3.008E-05 0.000E+00
     extrapolated charge    7.93721, renormalised to    8.00000

     total cpu time spent up to now is       66.7 secs

     Self-consistent Calculation

     iteration #  1     ecut=    80.00 Ry     beta= 0.70
     Davidson diagonalization with overlap
     c_bands:  2 eigenvalues not converged
     c_bands:  1 eigenvalues not converged
     c_bands:  1 eigenvalues not converged
     c_bands:  1 eigenvalues not converged
     c_bands:  1 eigenvalues not converged
     c_bands:  1 eigenvalues not converged
     c_bands:  1 eigenvalues not converged
     c_bands:  1 eigenvalues not converged
     ethr =  1.00E-06,  avg # of iterations = 14.9

     negative rho (up, down):  3.202E-05 0.000E+00

     total cpu time spent up to now is       71.2 secs

     total energy              =     -23.92922328 Ry
     estimated scf accuracy    <       0.00090519 Ry

     iteration #  2     ecut=    80.00 Ry     beta= 0.70
     Davidson diagonalization with overlap
     c_bands:  1 eigenvalues not converged
     ethr =  1.13E-05,  avg # of iterations = 12.6

     negative rho (up, down):  3.083E-05 0.000E+00

     total cpu time spent up to now is       74.4 secs

     total energy              =     -23.93098538 Ry
     estimated scf accuracy    <       0.00076692 Ry

     iteration #  3     ecut=    80.00 Ry     beta= 0.70
     Davidson diagonalization with overlap
     ethr =  9.59E-06,  avg # of iterations =  1.2

     negative rho (up, down):  3.085E-05 0.000E+00

     total cpu time spent up to now is       75.5 secs

     total energy              =     -23.93092416 Ry
     estimated scf accuracy    <       0.00022913 Ry

     iteration #  4     ecut=    80.00 Ry     beta= 0.70
     Davidson diagonalization with overlap
     ethr =  2.86E-06,  avg # of iterations =  2.8

     negative rho (up, down):  3.062E-05 0.000E+00

     total cpu time spent up to now is       76.9 secs

     total energy              =     -23.93092084 Ry
     estimated scf accuracy    <       0.00006363 Ry

     iteration #  5     ecut=    80.00 Ry     beta= 0.70
     Davidson diagonalization with overlap
     ethr =  7.95E-07,  avg # of iterations =  2.8

     negative rho (up, down):  3.033E-05 0.000E+00

     total cpu time spent up to now is       78.2 secs

     total energy              =     -23.93092668 Ry
     estimated scf accuracy    <       0.00001278 Ry

     iteration #  6     ecut=    80.00 Ry     beta= 0.70
     Davidson diagonalization with overlap
     ethr =  1.60E-07,  avg # of iterations =  3.2

     negative rho (up, down):  3.035E-05 0.000E+00

     total cpu time spent up to now is       79.6 secs

     total energy              =     -23.93092910 Ry
     estimated scf accuracy    <       0.00000236 Ry

     iteration #  7     ecut=    80.00 Ry     beta= 0.70
     Davidson diagonalization with overlap
     ethr =  2.96E-08,  avg # of iterations =  3.7

     negative rho (up, down):  3.033E-05 0.000E+00

     total cpu time spent up to now is       81.1 secs

     total energy              =     -23.93093155 Ry
     estimated scf accuracy    <       0.00000014 Ry

     iteration #  8     ecut=    80.00 Ry     beta= 0.70
     Davidson diagonalization with overlap
     ethr =  1.76E-09,  avg # of iterations =  4.4

     negative rho (up, down):  3.012E-05 0.000E+00

     total cpu time spent up to now is       82.8 secs

     total energy              =     -23.93093005 Ry
     estimated scf accuracy    <       0.00000390 Ry

     iteration #  9     ecut=    80.00 Ry     beta= 0.70
     Davidson diagonalization with overlap
     ethr =  1.76E-09,  avg # of iterations =  4.1

     negative rho (up, down):  2.995E-05 0.000E+00

     total cpu time spent up to now is       84.5 secs

     total energy              =     -23.93093056 Ry
     estimated scf accuracy    <       0.00000040 Ry

     iteration # 10     ecut=    80.00 Ry     beta= 0.70
     Davidson diagonalization with overlap
     ethr =  1.76E-09,  avg # of iterations =  1.0

     negative rho (up, down):  2.988E-05 0.000E+00

     total cpu time spent up to now is       85.5 secs

     total energy              =     -23.93093052 Ry
     estimated scf accuracy    <       0.00000009 Ry

     iteration # 11     ecut=    80.00 Ry     beta= 0.70
     Davidson diagonalization with overlap
     ethr =  1.10E-09,  avg # of iterations =  3.7

     negative rho (up, down):  2.993E-05 0.000E+00

     total cpu time spent up to now is       87.2 secs

     total energy              =     -23.93093053 Ry
     estimated scf accuracy    <       0.00000015 Ry

     iteration # 12     ecut=    80.00 Ry     beta= 0.70
     Davidson diagonalization with overlap
     ethr =  1.10E-09,  avg # of iterations =  1.0

     negative rho (up, down):  2.995E-05 0.000E+00

     total cpu time spent up to now is       88.4 secs

     total energy              =     -23.93093052 Ry
     estimated scf accuracy    <       0.00000001 Ry

     iteration # 13     ecut=    80.00 Ry     beta= 0.70
     Davidson diagonalization with overlap
     ethr =  1.74E-10,  avg # of iterations =  3.7

     negative rho (up, down):  2.998E-05 0.000E+00

     total cpu time spent up to now is       90.0 secs

     total energy              =     -23.93093053 Ry
     estimated scf accuracy    <          6.1E-09 Ry

     iteration # 14     ecut=    80.00 Ry     beta= 0.70
     Davidson diagonalization with overlap
     ethr =  7.62E-11,  avg # of iterations =  3.9

     negative rho (up, down):  2.996E-05 0.000E+00

     total cpu time spent up to now is       91.6 secs

     total energy              =     -23.93093053 Ry
     estimated scf accuracy    <          3.7E-09 Ry

     iteration # 15     ecut=    80.00 Ry     beta= 0.70
     Davidson diagonalization with overlap
     ethr =  4.62E-11,  avg # of iterations =  1.0

     negative rho (up, down):  2.995E-05 0.000E+00

     total cpu time spent up to now is       92.7 secs

     total energy              =     -23.93093053 Ry
     estimated scf accuracy    <          6.4E-10 Ry

     iteration # 16     ecut=    80.00 Ry     beta= 0.70
     Davidson diagonalization with overlap
     ethr =  7.97E-12,  avg # of iterations =  4.0

     negative rho (up, down):  2.995E-05 0.000E+00

     total cpu time spent up to now is       94.1 secs

     total energy              =     -23.93093053 Ry
     estimated scf accuracy    <          8.0E-11 Ry

     iteration # 17     ecut=    80.00 Ry     beta= 0.70
     Davidson diagonalization with overlap
     ethr =  9.99E-13,  avg # of iterations =  3.7

     negative rho (up, down):  2.995E-05 0.000E+00

     total cpu time spent up to now is       95.5 secs

     total energy              =     -23.93093053 Ry
     estimated scf accuracy    <          2.2E-10 Ry

     iteration # 18     ecut=    80.00 Ry     beta= 0.70
     Davidson diagonalization with overlap
     ethr =  9.99E-13,  avg # of iterations =  2.3

     negative rho (up, down):  2.993E-05 0.000E+00

     total cpu time spent up to now is       96.7 secs

     total energy              =     -23.93093053 Ry
     estimated scf accuracy    <          5.7E-10 Ry

     iteration # 19     ecut=    80.00 Ry     beta= 0.70
     Davidson diagonalization with overlap
     ethr =  9.99E-13,  avg # of iterations =  4.3

     negative rho (up, down):  2.994E-05 0.000E+00

     total cpu time spent up to now is       98.5 secs

     total energy              =     -23.93093053 Ry
     estimated scf accuracy    <          5.9E-09 Ry

     iteration # 20     ecut=    80.00 Ry     beta= 0.70
     Davidson diagonalization with overlap
     ethr =  9.99E-13,  avg # of iterations =  2.3

     negative rho (up, down):  2.996E-05 0.000E+00

     total cpu time spent up to now is       99.7 secs

     total energy              =     -23.93093053 Ry
     estimated scf accuracy    <          4.4E-09 Ry

     iteration # 21     ecut=    80.00 Ry     beta= 0.70
     Davidson diagonalization with overlap
     ethr =  9.99E-13,  avg # of iterations =  5.1

     negative rho (up, down):  2.995E-05 0.000E+00

     total cpu time spent up to now is      101.6 secs

     total energy              =     -23.93093053 Ry
     estimated scf accuracy    <          4.0E-10 Ry

     iteration # 22     ecut=    80.00 Ry     beta= 0.70
     Davidson diagonalization with overlap
     ethr =  9.99E-13,  avg # of iterations =  2.3

     negative rho (up, down):  2.995E-05 0.000E+00

     total cpu time spent up to now is      102.8 secs

     total energy              =     -23.93093053 Ry
     estimated scf accuracy    <          9.8E-11 Ry

     iteration # 23     ecut=    80.00 Ry     beta= 0.70
     Davidson diagonalization with overlap
     ethr =  9.99E-13,  avg # of iterations =  3.9

     negative rho (up, down):  2.995E-05 0.000E+00

     total cpu time spent up to now is      104.2 secs

     total energy              =     -23.93093053 Ry
     estimated scf accuracy    <          1.9E-11 Ry

     iteration # 24     ecut=    80.00 Ry     beta= 0.70
     Davidson diagonalization with overlap
     ethr =  2.38E-13,  avg # of iterations =  1.3

     negative rho (up, down):  2.995E-05 0.000E+00

     total cpu time spent up to now is      105.3 secs

     total energy              =     -23.93093053 Ry
     estimated scf accuracy    <          1.0E-11 Ry

     iteration # 25     ecut=    80.00 Ry     beta= 0.70
     Davidson diagonalization with overlap
     ethr =  1.26E-13,  avg # of iterations =  2.0

     negative rho (up, down):  2.995E-05 0.000E+00

     total cpu time spent up to now is      106.5 secs

     End of self-consistent calculation

          k = 0.0000 0.0000 0.0000 (  6489 PWs)   bands (ev):

   -21.4243  -9.7348  -4.9545  -4.9545   1.3783   2.3993   2.7099   4.6132

          k =-0.0000 0.0969 0.0000 (  6493 PWs)   bands (ev):

   -21.2591  -9.5345  -5.5955  -5.3012   1.6035   2.6274   2.9405   4.8395

          k =-0.0000 0.1939 0.0000 (  6481 PWs)   bands (ev):

   -20.7652  -8.9388  -7.2189  -6.1117   2.2790   3.3098   3.6324   5.5147

          k =-0.0000 0.2908 0.0000 (  6429 PWs)   bands (ev):

   -19.9481  -9.3121  -7.9666  -7.0098   3.4025   4.4211   4.7847   5.4495

          k =-0.0000 0.3878 0.0000 (  6414 PWs)   bands (ev):

   -18.8188 -11.5206  -7.7575  -6.6678   3.0401   4.9616   6.0544   6.0590

          k =-0.0000 0.4847 0.0000 (  6418 PWs)   bands (ev):

   -17.4024 -13.6395  -8.2393  -5.2051   0.8484   5.8317   6.9944   8.0592

          k = 0.0000-0.5817 0.0000 (  6386 PWs)   bands (ev):

   -16.0456 -15.2385  -8.4047  -4.3288  -0.2874   5.7647   9.3359   9.4268

          k = 0.0840 0.1454 0.0000 (  6473 PWs)   bands (ev):

   -20.9296  -9.1364  -6.6141  -5.9949   2.0541   3.0828   3.4019   5.2909

          k = 0.0840 0.2424 0.0000 (  6444 PWs)   bands (ev):

   -20.2741  -8.3513  -8.3124  -7.0116   2.9548   3.9888   4.3248   6.1573

          k = 0.0840 0.3393 0.0000 (  6420 PWs)   bands (ev):

   -19.3010 -10.3880  -7.9099  -7.2095   4.0836   4.3005   5.3700   5.7071

          k = 0.0840 0.4363 0.0000 (  6423 PWs)   bands (ev):

   -18.0266 -12.5233  -8.5529  -5.7948   1.8303   6.0661   6.6670   7.1468

          k = 0.0840 0.5332 0.0000 (  6418 PWs)   bands (ev):

   -16.5079 -14.5038  -8.8855  -4.4437   0.0088   6.4907   8.2972   9.2926

          k = 0.1679 0.2908 0.0000 (  6421 PWs)   bands (ev):

   -19.4627  -9.6179  -8.4056  -7.3927   4.0789   4.5594   5.1127   5.4790

          k = 0.1679 0.3878 0.0000 (  6439 PWs)   bands (ev):

   -18.3440 -11.3521  -9.4680  -6.1096   2.5750   5.6419   6.6545   7.0922

          k = 0.1679 0.4847 0.0000 (  6433 PWs)   bands (ev):

   -16.9476 -13.2916 -10.0382  -4.6443   0.6164   7.6161   8.3712   8.4926

          k = 0.1679 0.5817 0.0000 (  6408 PWs)   bands (ev):

   -15.6300 -14.8124 -10.2214  -3.7208  -0.4862   8.2800   9.6501   9.8889

          k = 0.2519 0.4363 0.0000 (  6437 PWs)   bands (ev):

   -17.1005 -12.3490 -11.0027  -4.7336   0.9383   7.4031   8.1697   8.9325

          k = 0.2519 0.5332 0.0000 (  6421 PWs)   bands (ev):

   -15.6429 -13.8106 -11.7047  -3.3103  -0.6132   8.8222   9.5044  10.4967

          k = 0.3358 0.5817 0.0000 (  6408 PWs)   bands (ev):

   -14.3885 -14.3885 -12.7010  -1.9267  -1.9267   8.4868  11.1034  11.1034

     the Fermi energy is    -1.8888 ev

!    total energy              =     -23.93093053 Ry
     estimated scf accuracy    <          1.2E-13 Ry
     smearing contrib. (-TS)   =      -0.00018232 Ry
     internal energy E=F+TS    =     -23.93074821 Ry

     The total energy is F=E-TS. E is the sum of the following terms:
     one-electron contribution =    -159.82879721 Ry
     hartree contribution      =      81.33468769 Ry
     xc contribution           =      -8.28947578 Ry
     ewald contribution        =      62.85283709 Ry

     convergence has been achieved in  25 iterations

     negative rho (up, down):  2.995E-05 0.000E+00

     Forces acting on atoms (cartesian axes, Ry/au):

     atom    1 type  1   force =    -0.00000000    0.00000000    0.00000000
     atom    2 type  1   force =     0.00000000   -0.00000000    0.00000000

     Total force =     0.000000     Total SCF correction =     0.000000


     Computing stress (Cartesian axis) and pressure


     negative rho (up, down):  2.995E-05 0.000E+00
          total   stress  (Ry/bohr**3)                   (kbar)     P=        0.00
   0.00000023  -0.00000000  -0.00000000            0.03       -0.00       -0.00
  -0.00000000   0.00000023   0.00000000           -0.00        0.03        0.00
  -0.00000000   0.00000000  -0.00000041           -0.00        0.00       -0.06

     Energy error            =      1.5E-04 Ry
     Gradient error          =      8.0E-26 Ry/Bohr
     Cell gradient error     =      3.4E-02 kbar

     number of scf cycles    =   3
     number of bfgs steps    =   2

     enthalpy           old  =     -23.9307784754 Ry
     enthalpy           new  =     -23.9309305314 Ry

     CASE: enthalpy          _new < enthalpy          _old

     small trust_radius: resetting bfgs history

     new trust radius        =       0.0000267211 bohr
     new conv_thr            =            1.0E-11 Ry

     new unit-cell volume =    524.32501 a.u.^3 (    77.69695 Ang^3 )
     density =      0.51339 g/cm^3

CELL_PARAMETERS (alat=  4.65610675)
   0.992583339   0.000000000   0.000000000
  -0.496291669   0.859602387   0.000000000
   0.000000000   0.000000000   6.087895618

ATOMIC_POSITIONS (crystal)
C             0.3333333330        0.6666666660        0.5000000000
C             0.6666666660        0.3333333330        0.5000000000



     Writing config-only to output data dir ../tmp/gr.save/
     NEW-OLD atomic charge density approx. for the potential

     negative rho (up, down):  2.995E-05 0.000E+00
     extrapolated charge    8.00009, renormalised to    8.00000

     total cpu time spent up to now is      111.1 secs

     Self-consistent Calculation

     iteration #  1     ecut=    80.00 Ry     beta= 0.70
     Davidson diagonalization with overlap
     ethr =  1.00E-06,  avg # of iterations =  2.0

     Threshold (ethr) on eigenvalues was too large:
     Diagonalizing with lowered threshold

     Davidson diagonalization with overlap
     ethr =  1.61E-11,  avg # of iterations =  3.9

     negative rho (up, down):  2.994E-05 0.000E+00

     total cpu time spent up to now is      113.7 secs

     total energy              =     -23.93093053 Ry
     estimated scf accuracy    <          2.0E-09 Ry

     iteration #  2     ecut=    80.00 Ry     beta= 0.70
     Davidson diagonalization with overlap
     ethr =  2.54E-11,  avg # of iterations =  4.0

     negative rho (up, down):  2.995E-05 0.000E+00

     total cpu time spent up to now is      115.4 secs

     total energy              =     -23.93093053 Ry
     estimated scf accuracy    <          2.0E-09 Ry

     iteration #  3     ecut=    80.00 Ry     beta= 0.70
     Davidson diagonalization with overlap
     ethr =  2.51E-11,  avg # of iterations =  1.0

     negative rho (up, down):  2.995E-05 0.000E+00

     total cpu time spent up to now is      116.5 secs

     total energy              =     -23.93093053 Ry
     estimated scf accuracy    <          6.0E-10 Ry

     iteration #  4     ecut=    80.00 Ry     beta= 0.70
     Davidson diagonalization with overlap
     ethr =  7.46E-12,  avg # of iterations =  2.3

     negative rho (up, down):  2.995E-05 0.000E+00

     total cpu time spent up to now is      117.6 secs

     total energy              =     -23.93093053 Ry
     estimated scf accuracy    <          1.2E-10 Ry

     iteration #  5     ecut=    80.00 Ry     beta= 0.70
     Davidson diagonalization with overlap
     ethr =  1.56E-12,  avg # of iterations =  4.0

     negative rho (up, down):  2.995E-05 0.000E+00

     total cpu time spent up to now is      119.3 secs

     total energy              =     -23.93093053 Ry
     estimated scf accuracy    <          1.7E-11 Ry

     iteration #  6     ecut=    80.00 Ry     beta= 0.70
     Davidson diagonalization with overlap
     ethr =  2.09E-13,  avg # of iterations =  2.8

     negative rho (up, down):  2.995E-05 0.000E+00

     total cpu time spent up to now is      120.5 secs

     total energy              =     -23.93093053 Ry
     estimated scf accuracy    <          4.6E-11 Ry

     iteration #  7     ecut=    80.00 Ry     beta= 0.70
     Davidson diagonalization with overlap
     ethr =  2.09E-13,  avg # of iterations =  1.0

     negative rho (up, down):  2.995E-05 0.000E+00

     total cpu time spent up to now is      121.6 secs

     total energy              =     -23.93093053 Ry
     estimated scf accuracy    <          3.7E-11 Ry

     iteration #  8     ecut=    80.00 Ry     beta= 0.70
     Davidson diagonalization with overlap
     ethr =  2.09E-13,  avg # of iterations =  4.0

     negative rho (up, down):  2.995E-05 0.000E+00

     total cpu time spent up to now is      123.1 secs

     total energy              =     -23.93093053 Ry
     estimated scf accuracy    <          1.2E-11 Ry

     iteration #  9     ecut=    80.00 Ry     beta= 0.70
     Davidson diagonalization with overlap
     ethr =  1.46E-13,  avg # of iterations =  1.0

     negative rho (up, down):  2.995E-05 0.000E+00

     total cpu time spent up to now is      124.1 secs

     End of self-consistent calculation

          k = 0.0000 0.0000 0.0000 (  6489 PWs)   bands (ev):

   -21.4243  -9.7348  -4.9546  -4.9546   1.3783   2.3992   2.7099   4.6132

          k =-0.0000 0.0969 0.0000 (  6493 PWs)   bands (ev):

   -21.2591  -9.5345  -5.5956  -5.3013   1.6035   2.6274   2.9405   4.8395

          k =-0.0000 0.1939 0.0000 (  6481 PWs)   bands (ev):

   -20.7652  -8.9387  -7.2190  -6.1118   2.2790   3.3098   3.6324   5.5146

          k =-0.0000 0.2908 0.0000 (  6429 PWs)   bands (ev):

   -19.9481  -9.3122  -7.9666  -7.0098   3.4025   4.4210   4.7847   5.4493

          k =-0.0000 0.3878 0.0000 (  6414 PWs)   bands (ev):

   -18.8188 -11.5206  -7.7576  -6.6679   3.0399   4.9615   6.0543   6.0588

          k =-0.0000 0.4847 0.0000 (  6418 PWs)   bands (ev):

   -17.4024 -13.6395  -8.2394  -5.2052   0.8482   5.8314   6.9943   8.0591

          k = 0.0000-0.5817 0.0000 (  6386 PWs)   bands (ev):

   -16.0456 -15.2385  -8.4047  -4.3288  -0.2875   5.7644   9.3358   9.4267

          k = 0.0840 0.1454 0.0000 (  6473 PWs)   bands (ev):

   -20.9295  -9.1363  -6.6142  -5.9950   2.0541   3.0828   3.4019   5.2908

          k = 0.0840 0.2424 0.0000 (  6444 PWs)   bands (ev):

   -20.2741  -8.3512  -8.3125  -7.0117   2.9547   3.9887   4.3248   6.1570

          k = 0.0840 0.3393 0.0000 (  6420 PWs)   bands (ev):

   -19.3009 -10.3880  -7.9099  -7.2095   4.0834   4.3005   5.3699   5.7071

          k = 0.0840 0.4362 0.0000 (  6423 PWs)   bands (ev):

   -18.0266 -12.5233  -8.5529  -5.7948   1.8302   6.0660   6.6667   7.1467

          k = 0.0840 0.5332 0.0000 (  6418 PWs)   bands (ev):

   -16.5079 -14.5038  -8.8856  -4.4438   0.0087   6.4905   8.2971   9.2925

          k = 0.1679 0.2908 0.0000 (  6421 PWs)   bands (ev):

   -19.4627  -9.6180  -8.4056  -7.3927   4.0788   4.5592   5.1126   5.4789

          k = 0.1679 0.3878 0.0000 (  6439 PWs)   bands (ev):

   -18.3440 -11.3522  -9.4680  -6.1096   2.5749   5.6418   6.6544   7.0921

          k = 0.1679 0.4847 0.0000 (  6433 PWs)   bands (ev):

   -16.9476 -13.2916 -10.0382  -4.6444   0.6163   7.6160   8.3709   8.4925

          k = 0.1679 0.5817 0.0000 (  6408 PWs)   bands (ev):

   -15.6300 -14.8124 -10.2214  -3.7208  -0.4863   8.2797   9.6500   9.8888

          k = 0.2519 0.4362 0.0000 (  6437 PWs)   bands (ev):

   -17.1005 -12.3490 -11.0027  -4.7336   0.9382   7.4030   8.1696   8.9324

          k = 0.2519 0.5332 0.0000 (  6421 PWs)   bands (ev):

   -15.6429 -13.8106 -11.7047  -3.3104  -0.6133   8.8221   9.5043  10.4964

          k = 0.3358 0.5817 0.0000 (  6408 PWs)   bands (ev):

   -14.3885 -14.3885 -12.7009  -1.9268  -1.9268   8.4867  11.1032  11.1032

     the Fermi energy is    -1.8888 ev

!    total energy              =     -23.93093053 Ry
     estimated scf accuracy    <          7.3E-12 Ry
     smearing contrib. (-TS)   =      -0.00018232 Ry
     internal energy E=F+TS    =     -23.93074821 Ry

     The total energy is F=E-TS. E is the sum of the following terms:
     one-electron contribution =    -159.82689434 Ry
     hartree contribution      =      81.33372534 Ry
     xc contribution           =      -8.28945031 Ry
     ewald contribution        =      62.85187110 Ry

     convergence has been achieved in   9 iterations

     negative rho (up, down):  2.995E-05 0.000E+00

     Forces acting on atoms (cartesian axes, Ry/au):

     atom    1 type  1   force =     0.00000000    0.00000000    0.00000000
     atom    2 type  1   force =    -0.00000000    0.00000000    0.00000000

     Total force =     0.000000     Total SCF correction =     0.000000


     Computing stress (Cartesian axis) and pressure


     negative rho (up, down):  2.995E-05 0.000E+00
          total   stress  (Ry/bohr**3)                   (kbar)     P=       -0.01
   0.00000012  -0.00000000  -0.00000000            0.02       -0.00       -0.00
  -0.00000000   0.00000012   0.00000000           -0.00        0.02        0.00
  -0.00000000   0.00000000  -0.00000038           -0.00        0.00       -0.06

     Energy error            =      1.1E-09 Ry
     Gradient error          =      2.8E-25 Ry/Bohr
     Cell gradient error     =      1.8E-02 kbar

     bfgs converged in   4 scf cycles and   3 bfgs steps
     (criteria: energy <  1.0E-05 Ry, force <  1.0E-04Ry/Bohr, cell <  5.0E-02kbar)

     End of BFGS Geometry Optimization

     Final enthalpy           =     -23.9309305324 Ry

     File ../tmp/gr.bfgs deleted, as requested
Begin final coordinates
     new unit-cell volume =    524.32501 a.u.^3 (    77.69695 Ang^3 )
     density =      0.51339 g/cm^3

CELL_PARAMETERS (alat=  4.65610675)
   0.992583339   0.000000000   0.000000000
  -0.496291669   0.859602387   0.000000000
   0.000000000   0.000000000   6.087895618

ATOMIC_POSITIONS (crystal)
C             0.3333333330        0.6666666660        0.5000000000
C             0.6666666660        0.3333333330        0.5000000000
End final coordinates



     Writing config-only to output data dir ../tmp/gr.save/

     Final scf calculation at the relaxed structure.
     The G-vectors are recalculated for the final unit cell
     Results may differ from those at the preceding step.

     G-vector sticks info
     --------------------
     sticks:   dense  smooth     PW     G-vecs:    dense   smooth      PW
     Sum         475     475    151                50627    50627    8495

     Using Slab Decomposition



     bravais-lattice index     =            4
     lattice parameter (alat)  =       4.6561  a.u.
     unit-cell volume          =     524.3250 (a.u.)^3
     number of atoms/cell      =            2
     number of atomic types    =            1
     number of electrons       =         8.00
     number of Kohn-Sham states=            8
     kinetic-energy cutoff     =      80.0000  Ry
     charge density cutoff     =     320.0000  Ry
     scf convergence threshold =      1.0E-11
     mixing beta               =       0.7000
     number of iterations used =            8  plain     mixing
     press convergence thresh. =      5.0E-02
     Exchange-correlation= LDA
                           (   1   1   0   0   0   0   0)

     celldm(1)=   4.656107  celldm(2)=   0.000000  celldm(3)=   6.087896
     celldm(4)=   0.000000  celldm(5)=   0.000000  celldm(6)=   0.000000

     crystal axes: (cart. coord. in units of alat)
               a(1) = (   0.992583   0.000000   0.000000 )  
               a(2) = (  -0.496292   0.859602   0.000000 )  
               a(3) = (   0.000000   0.000000   6.087896 )  

     reciprocal axes: (cart. coord. in units 2 pi/alat)
               b(1) = (  1.007472  0.581664 -0.000000 )  
               b(2) = ( -0.000000  1.163329  0.000000 )  
               b(3) = (  0.000000 -0.000000  0.164260 )  


     PseudoPot. # 1 for C  read from file:
     ../pseudo/C.pz-n-rrkjus_psl.0.1.UPF
     MD5 check sum: a3cecbabebb5b3a1aff122f23eb09bb0
     Pseudo is Ultrasoft + core correction, Zval =  4.0
     Generated using "atomic" code by A. Dal Corso  v.5.0.2 svn rev. 9415
     Using radial grid of 1073 points,  4 beta functions with: 
                l(1) =   0
                l(2) =   0
                l(3) =   1
                l(4) =   1
     Q(r) pseudized with 0 coefficients 


     atomic species   valence    mass     pseudopotential
        C              4.00    12.01070     C ( 1.00)

     24 Sym. Ops., with inversion, found



   Cartesian axes

     site n.     atom                  positions (alat units)
         1           C   tau(   1) = (   0.0000000   0.5730683   3.0439478  )
         2           C   tau(   2) = (   0.4962917   0.2865341   3.0439478  )

     number of k points=    19  Marzari-Vanderbilt smearing, width (Ry)=  0.0200
                       cart. coord. in units 2pi/alat
        k(    1) = (   0.0000000   0.0000000   0.0000000), wk =   0.0138889
        k(    2) = (  -0.0000000   0.0969440   0.0000000), wk =   0.0833333
        k(    3) = (  -0.0000000   0.1938881   0.0000000), wk =   0.0833333
        k(    4) = (  -0.0000000   0.2908321   0.0000000), wk =   0.0833333
        k(    5) = (  -0.0000000   0.3877762   0.0000000), wk =   0.0833333
        k(    6) = (  -0.0000000   0.4847202   0.0000000), wk =   0.0833333
        k(    7) = (   0.0000000  -0.5816643   0.0000000), wk =   0.0416667
        k(    8) = (   0.0839560   0.1454161   0.0000000), wk =   0.0833333
        k(    9) = (   0.0839560   0.2423601   0.0000000), wk =   0.1666667
        k(   10) = (   0.0839560   0.3393042   0.0000000), wk =   0.1666667
        k(   11) = (   0.0839560   0.4362482   0.0000000), wk =   0.1666667
        k(   12) = (   0.0839560   0.5331923   0.0000000), wk =   0.1666667
        k(   13) = (   0.1679120   0.2908321   0.0000000), wk =   0.0833333
        k(   14) = (   0.1679120   0.3877762   0.0000000), wk =   0.1666667
        k(   15) = (   0.1679120   0.4847202   0.0000000), wk =   0.1666667
        k(   16) = (   0.1679120   0.5816643   0.0000000), wk =   0.0833333
        k(   17) = (   0.2518680   0.4362482   0.0000000), wk =   0.0833333
        k(   18) = (   0.2518680   0.5331923   0.0000000), wk =   0.1666667
        k(   19) = (   0.3358240   0.5816643   0.0000000), wk =   0.0277778

     Dense  grid:    50627 G-vectors     FFT dimensions: (  27,  27, 162)

     Estimated max dynamical RAM per process >      86.01 MB

     Check: negative core charge=   -0.000001

     Initial potential from superposition of free atoms

     starting charge       7.9999, renormalised to       8.0000

     negative rho (up, down):  5.355E-05 0.000E+00
     Starting wfcs are    8 randomized atomic wfcs

     total cpu time spent up to now is      128.9 secs

     Self-consistent Calculation

     iteration #  1     ecut=    80.00 Ry     beta= 0.70
     Davidson diagonalization with overlap
     c_bands:  5 eigenvalues not converged
     c_bands:  1 eigenvalues not converged
     c_bands:  1 eigenvalues not converged
     c_bands:  1 eigenvalues not converged
     c_bands:  5 eigenvalues not converged
     c_bands:  5 eigenvalues not converged
     c_bands:  4 eigenvalues not converged
     c_bands:  1 eigenvalues not converged
     c_bands:  1 eigenvalues not converged
     c_bands:  1 eigenvalues not converged
     c_bands:  1 eigenvalues not converged
     c_bands:  5 eigenvalues not converged
     c_bands:  1 eigenvalues not converged
     c_bands:  1 eigenvalues not converged
     c_bands:  2 eigenvalues not converged
     c_bands:  2 eigenvalues not converged
     c_bands:  1 eigenvalues not converged
     c_bands:  5 eigenvalues not converged
     ethr =  1.00E-06,  avg # of iterations = 33.7

     negative rho (up, down):  8.057E-06 0.000E+00

     total cpu time spent up to now is      140.0 secs

     total energy              =     -23.89018751 Ry
     estimated scf accuracy    <       0.22995565 Ry

     iteration #  2     ecut=    80.00 Ry     beta= 0.70
     Davidson diagonalization with overlap
     ethr =  2.87E-03,  avg # of iterations =  2.6

     negative rho (up, down):  4.603E-06 0.000E+00

     total cpu time spent up to now is      141.2 secs

     total energy              =     -23.91747682 Ry
     estimated scf accuracy    <       0.00285819 Ry

     iteration #  3     ecut=    80.00 Ry     beta= 0.70
     Davidson diagonalization with overlap
     c_bands:  1 eigenvalues not converged
     c_bands:  1 eigenvalues not converged
     c_bands:  1 eigenvalues not converged
     c_bands:  1 eigenvalues not converged
     c_bands:  1 eigenvalues not converged
     c_bands:  1 eigenvalues not converged
     c_bands:  2 eigenvalues not converged
     ethr =  3.57E-05,  avg # of iterations = 16.5

     negative rho (up, down):  4.238E-05 0.000E+00

     total cpu time spent up to now is      145.6 secs

     total energy              =     -23.92981674 Ry
     estimated scf accuracy    <       0.00453350 Ry

     iteration #  4     ecut=    80.00 Ry     beta= 0.70
     Davidson diagonalization with overlap
     ethr =  3.57E-05,  avg # of iterations =  5.8

     negative rho (up, down):  2.391E-05 0.000E+00

     total cpu time spent up to now is      147.4 secs

     total energy              =     -23.93060746 Ry
     estimated scf accuracy    <       0.00215015 Ry

     iteration #  5     ecut=    80.00 Ry     beta= 0.70
     Davidson diagonalization with overlap
     ethr =  2.69E-05,  avg # of iterations =  1.5

     negative rho (up, down):  2.228E-05 0.000E+00

     total cpu time spent up to now is      148.5 secs

     total energy              =     -23.93078995 Ry
     estimated scf accuracy    <       0.00006047 Ry

     iteration #  6     ecut=    80.00 Ry     beta= 0.70
     Davidson diagonalization with overlap
     c_bands:  1 eigenvalues not converged
     ethr =  7.56E-07,  avg # of iterations =  8.1

     negative rho (up, down):  2.440E-05 0.000E+00

     total cpu time spent up to now is      150.9 secs

     total energy              =     -23.93092921 Ry
     estimated scf accuracy    <       0.00004306 Ry

     iteration #  7     ecut=    80.00 Ry     beta= 0.70
     Davidson diagonalization with overlap
     ethr =  5.38E-07,  avg # of iterations =  1.7

     negative rho (up, down):  2.824E-05 0.000E+00

     total cpu time spent up to now is      152.0 secs

     total energy              =     -23.93092244 Ry
     estimated scf accuracy    <       0.00001357 Ry

     iteration #  8     ecut=    80.00 Ry     beta= 0.70
     Davidson diagonalization with overlap
     ethr =  1.70E-07,  avg # of iterations =  2.8

     negative rho (up, down):  2.834E-05 0.000E+00

     total cpu time spent up to now is      153.4 secs

     total energy              =     -23.93092850 Ry
     estimated scf accuracy    <       0.00000097 Ry

     iteration #  9     ecut=    80.00 Ry     beta= 0.70
     Davidson diagonalization with overlap
     ethr =  1.22E-08,  avg # of iterations =  4.3

     negative rho (up, down):  2.790E-05 0.000E+00

     total cpu time spent up to now is      155.0 secs

     total energy              =     -23.93092859 Ry
     estimated scf accuracy    <       0.00000131 Ry

     iteration # 10     ecut=    80.00 Ry     beta= 0.70
     Davidson diagonalization with overlap
     ethr =  1.22E-08,  avg # of iterations =  1.7

     negative rho (up, down):  2.784E-05 0.000E+00

     total cpu time spent up to now is      156.1 secs

     total energy              =     -23.93092871 Ry
     estimated scf accuracy    <       0.00000008 Ry

     iteration # 11     ecut=    80.00 Ry     beta= 0.70
     Davidson diagonalization with overlap
     ethr =  1.05E-09,  avg # of iterations =  4.0

     negative rho (up, down):  2.795E-05 0.000E+00

     total cpu time spent up to now is      157.8 secs

     total energy              =     -23.93092880 Ry
     estimated scf accuracy    <       0.00000001 Ry

     iteration # 12     ecut=    80.00 Ry     beta= 0.70
     Davidson diagonalization with overlap
     ethr =  1.77E-10,  avg # of iterations =  2.2

     negative rho (up, down):  2.767E-05 0.000E+00

     total cpu time spent up to now is      159.0 secs

     total energy              =     -23.93092877 Ry
     estimated scf accuracy    <       0.00000006 Ry

     iteration # 13     ecut=    80.00 Ry     beta= 0.70
     Davidson diagonalization with overlap
     ethr =  1.77E-10,  avg # of iterations =  3.9

     negative rho (up, down):  2.769E-05 0.000E+00

     total cpu time spent up to now is      160.4 secs

     total energy              =     -23.93092878 Ry
     estimated scf accuracy    <          4.7E-10 Ry

     iteration # 14     ecut=    80.00 Ry     beta= 0.70
     Davidson diagonalization with overlap
     ethr =  5.90E-12,  avg # of iterations =  4.1

     negative rho (up, down):  2.770E-05 0.000E+00

     total cpu time spent up to now is      162.0 secs

     total energy              =     -23.93092878 Ry
     estimated scf accuracy    <          7.9E-10 Ry

     iteration # 15     ecut=    80.00 Ry     beta= 0.70
     Davidson diagonalization with overlap
     ethr =  5.90E-12,  avg # of iterations =  3.0

     negative rho (up, down):  2.770E-05 0.000E+00

     total cpu time spent up to now is      163.4 secs

     total energy              =     -23.93092878 Ry
     estimated scf accuracy    <          7.8E-11 Ry

     iteration # 16     ecut=    80.00 Ry     beta= 0.70
     Davidson diagonalization with overlap
     ethr =  9.70E-13,  avg # of iterations =  3.1

     negative rho (up, down):  2.770E-05 0.000E+00

     total cpu time spent up to now is      164.7 secs

     total energy              =     -23.93092878 Ry
     estimated scf accuracy    <          6.8E-11 Ry

     iteration # 17     ecut=    80.00 Ry     beta= 0.70
     Davidson diagonalization with overlap
     ethr =  8.56E-13,  avg # of iterations =  1.1

     negative rho (up, down):  2.770E-05 0.000E+00

     total cpu time spent up to now is      165.8 secs

     total energy              =     -23.93092878 Ry
     estimated scf accuracy    <          2.7E-11 Ry

     iteration # 18     ecut=    80.00 Ry     beta= 0.70
     Davidson diagonalization with overlap
     ethr =  3.36E-13,  avg # of iterations =  1.0

     negative rho (up, down):  2.770E-05 0.000E+00

     total cpu time spent up to now is      166.8 secs

     total energy              =     -23.93092878 Ry
     estimated scf accuracy    <          3.2E-11 Ry

     iteration # 19     ecut=    80.00 Ry     beta= 0.70
     Davidson diagonalization with overlap
     ethr =  3.36E-13,  avg # of iterations =  1.8

     negative rho (up, down):  2.770E-05 0.000E+00

     total cpu time spent up to now is      168.0 secs

     End of self-consistent calculation

          k = 0.0000 0.0000 0.0000 (  6381 PWs)   bands (ev):

   -21.4242  -9.7348  -4.9545  -4.9545   1.3765   2.3949   2.6981   4.6042

          k =-0.0000 0.0969 0.0000 (  6405 PWs)   bands (ev):

   -21.2590  -9.5344  -5.5956  -5.3013   1.6016   2.6231   2.9286   4.8305

          k =-0.0000 0.1939 0.0000 (  6381 PWs)   bands (ev):

   -20.7651  -8.9387  -7.2190  -6.1117   2.2772   3.3056   3.6205   5.5055

          k =-0.0000 0.2908 0.0000 (  6329 PWs)   bands (ev):

   -19.9480  -9.3121  -7.9666  -7.0098   3.4009   4.4172   4.7727   5.4488

          k =-0.0000 0.3878 0.0000 (  6316 PWs)   bands (ev):

   -18.8188 -11.5206  -7.7575  -6.6678   3.0399   4.9601   6.0505   6.0583

          k =-0.0000 0.4847 0.0000 (  6314 PWs)   bands (ev):

   -17.4024 -13.6395  -8.2393  -5.2052   0.8483   5.8314   6.9930   8.0556

          k = 0.0000-0.5817 0.0000 (  6322 PWs)   bands (ev):

   -16.0456 -15.2385  -8.4047  -4.3288  -0.2875   5.7645   9.3350   9.4256

          k = 0.0840 0.1454 0.0000 (  6381 PWs)   bands (ev):

   -20.9295  -9.1363  -6.6141  -5.9949   2.0523   3.0786   3.3900   5.2818

          k = 0.0840 0.2424 0.0000 (  6357 PWs)   bands (ev):

   -20.2740  -8.3512  -8.3125  -7.0117   2.9530   3.9846   4.3128   6.1493

          k = 0.0840 0.3393 0.0000 (  6340 PWs)   bands (ev):

   -19.3009 -10.3880  -7.9099  -7.2095   4.0834   4.2989   5.3660   5.6951

          k = 0.0840 0.4362 0.0000 (  6325 PWs)   bands (ev):

   -18.0266 -12.5233  -8.5529  -5.7948   1.8302   6.0648   6.6665   7.1432

          k = 0.0840 0.5332 0.0000 (  6309 PWs)   bands (ev):

   -16.5078 -14.5038  -8.8856  -4.4437   0.0087   6.4905   8.2960   9.2900

          k = 0.1679 0.2908 0.0000 (  6343 PWs)   bands (ev):

   -19.4626  -9.6179  -8.4056  -7.3927   4.0773   4.5593   5.1087   5.4669

          k = 0.1679 0.3878 0.0000 (  6330 PWs)   bands (ev):

   -18.3440 -11.3521  -9.4680  -6.1096   2.5749   5.6404   6.6509   7.0800

          k = 0.1679 0.4847 0.0000 (  6320 PWs)   bands (ev):

   -16.9476 -13.2916 -10.0382  -4.6444   0.6163   7.6149   8.3708   8.4903

          k = 0.1679 0.5817 0.0000 (  6302 PWs)   bands (ev):

   -15.6300 -14.8124 -10.2214  -3.7208  -0.4863   8.2798   9.6498   9.8881

          k = 0.2519 0.4362 0.0000 (  6345 PWs)   bands (ev):

   -17.1005 -12.3490 -11.0027  -4.7336   0.9382   7.4018   8.1677   8.9202

          k = 0.2519 0.5332 0.0000 (  6325 PWs)   bands (ev):

   -15.6429 -13.8106 -11.7047  -3.3104  -0.6133   8.8220   9.5035  10.4964

          k = 0.3358 0.5817 0.0000 (  6324 PWs)   bands (ev):

   -14.3885 -14.3885 -12.7009  -1.9267  -1.9267   8.4867  11.1031  11.1032

     the Fermi energy is    -1.8888 ev

!    total energy              =     -23.93092878 Ry
     estimated scf accuracy    <          3.2E-12 Ry
     smearing contrib. (-TS)   =      -0.00018232 Ry
     internal energy E=F+TS    =     -23.93074645 Ry

     The total energy is F=E-TS. E is the sum of the following terms:
     one-electron contribution =    -159.82688863 Ry
     hartree contribution      =      81.33372109 Ry
     xc contribution           =      -8.28945002 Ry
     ewald contribution        =      62.85187110 Ry

     convergence has been achieved in  19 iterations

     negative rho (up, down):  2.770E-05 0.000E+00

     Forces acting on atoms (cartesian axes, Ry/au):

     atom    1 type  1   force =    -0.00000000    0.00000000    0.00000000
     atom    2 type  1   force =     0.00000000   -0.00000000    0.00000000

     Total force =     0.000000     Total SCF correction =     0.000000


     Computing stress (Cartesian axis) and pressure


     negative rho (up, down):  2.770E-05 0.000E+00
          total   stress  (Ry/bohr**3)                   (kbar)     P=       -0.01
   0.00000012   0.00000000   0.00000000            0.02        0.00        0.00
  -0.00000000   0.00000012  -0.00000000           -0.00        0.02       -0.00
   0.00000000  -0.00000000  -0.00000038            0.00       -0.00       -0.06


     Writing all to output data dir ../tmp/gr.save/

     init_run     :      3.51s CPU      3.56s WALL (       2 calls)
     electrons    :    139.37s CPU    147.42s WALL (       5 calls)
     update_pot   :      4.44s CPU      4.46s WALL (       3 calls)
     forces       :      4.32s CPU      4.37s WALL (       5 calls)
     stress       :     10.14s CPU     10.16s WALL (       5 calls)

     Called by init_run:
     wfcinit      :      0.89s CPU      0.91s WALL (       2 calls)
     potinit      :      0.95s CPU      0.96s WALL (       2 calls)
     hinit0       :      1.58s CPU      1.59s WALL (       2 calls)

     Called by electrons:
     c_bands      :    119.07s CPU    126.15s WALL (      86 calls)
     sum_band     :     16.99s CPU     17.10s WALL (      86 calls)
     v_of_rho     :      0.55s CPU      0.55s WALL (      90 calls)
     newd         :      1.90s CPU      1.96s WALL (      90 calls)
     mix_rho      :      0.83s CPU      0.83s WALL (      86 calls)

     Called by c_bands:
     init_us_2    :      2.31s CPU      2.40s WALL (    3496 calls)
     init_us_2:cp :      2.30s CPU      2.39s WALL (    3496 calls)
     cegterg      :    115.13s CPU    116.13s WALL (    1647 calls)

     Called by *egterg:
     cdiaghg      :      0.51s CPU      0.51s WALL (    8517 calls)
     h_psi        :     92.32s CPU     93.27s WALL (    8644 calls)
     s_psi        :      3.79s CPU      3.80s WALL (    8644 calls)
     g_psi        :      0.60s CPU      0.61s WALL (    6959 calls)

     Called by h_psi:
     h_psi:calbec :      4.88s CPU      4.89s WALL (    8644 calls)
     vloc_psi     :     83.08s CPU     83.99s WALL (    8644 calls)
     add_vuspsi   :      3.87s CPU      3.88s WALL (    8644 calls)

     General routines
     calbec       :      6.51s CPU      6.53s WALL (   10753 calls)
     fft          :      0.77s CPU      0.78s WALL (     404 calls)
     ffts         :      0.15s CPU      0.15s WALL (      86 calls)
     fftw         :     86.81s CPU     87.71s WALL (  100576 calls)


     PWSCF        :   2m41.93s CPU   2m51.39s WALL


   This run was terminated on:   0:37:11  25Aug2023            

=------------------------------------------------------------------------------=
   JOB DONE.
=------------------------------------------------------------------------------=
