
     Program PWSCF v.7.0 starts on 25Aug2023 at  0:31:16 

     This program is part of the open-source Quantum ESPRESSO suite
     for quantum simulation of materials; please cite
         "P. Giannozzi et al., J. Phys.:Condens. Matter 21 395502 (2009);
         "P. Giannozzi et al., J. Phys.:Condens. Matter 29 465901 (2017);
         "P. Giannozzi et al., J. Chem. Phys. 152 154105 (2020);
          URL http://www.quantum-espresso.org", 
     in publications or presentations arising from this work. More details at
     http://www.quantum-espresso.org/quote

     Serial version
     6222 MiB available memory on the printing compute node when the environment starts

     Waiting for input...
     Reading input from standard input

     Current dimensions of program PWSCF are:
     Max number of different atomic species (ntypx) = 10
     Max number of k-points (npk) =  40000
     Max angular momentum in pseudopotentials (lmaxx) =  4

     G-vector sticks info
     --------------------
     sticks:   dense  smooth     PW     G-vecs:    dense   smooth      PW
     Sum         475     475    151                51311    51311    8639

     Using Slab Decomposition



     bravais-lattice index     =            4
     lattice parameter (alat)  =       4.6561  a.u.
     unit-cell volume          =     532.1899 (a.u.)^3
     number of atoms/cell      =            2
     number of atomic types    =            1
     number of electrons       =         8.00
     number of Kohn-Sham states=            8
     kinetic-energy cutoff     =      80.0000  Ry
     charge density cutoff     =     320.0000  Ry
     scf convergence threshold =      1.0E-09
     mixing beta               =       0.7000
     number of iterations used =            8  plain     mixing
     energy convergence thresh.=      1.0E-05
     force convergence thresh. =      1.0E-04
     press convergence thresh. =      5.0E-02
     Exchange-correlation= PBE
                           (   1   4   3   4   0   0   0)
     nstep                     =           50


     celldm(1)=   4.656107  celldm(2)=   0.000000  celldm(3)=   6.087896
     celldm(4)=   0.000000  celldm(5)=   0.000000  celldm(6)=   0.000000

     crystal axes: (cart. coord. in units of alat)
               a(1) = (   1.000000   0.000000   0.000000 )  
               a(2) = (  -0.500000   0.866025   0.000000 )  
               a(3) = (   0.000000   0.000000   6.087896 )  

     reciprocal axes: (cart. coord. in units 2 pi/alat)
               b(1) = (  1.000000  0.577350 -0.000000 )  
               b(2) = (  0.000000  1.154701  0.000000 )  
               b(3) = (  0.000000 -0.000000  0.164260 )  


     PseudoPot. # 1 for C  read from file:
     ../pseudo/C.pbe-n-rrkjus_psl.0.1.UPF
     MD5 check sum: 96a6a315177d77e6c95bf6fd3870f9e3
     Pseudo is Ultrasoft + core correction, Zval =  4.0
     Generated using &quot;atomic&quot; code by A. Dal Corso  v.6.3MaX
     Using radial grid of 1073 points,  4 beta functions with: 
                l(1) =   0
                l(2) =   0
                l(3) =   1
                l(4) =   1
     Q(r) pseudized with 0 coefficients 


     atomic species   valence    mass     pseudopotential
        C              4.00    12.01070     C ( 1.00)

     24 Sym. Ops., with inversion, found



   Cartesian axes

     site n.     atom                  positions (alat units)
         1           C   tau(   1) = (   0.0000000   0.5773503   3.0439478  )
         2           C   tau(   2) = (   0.5000000   0.2886751   3.0439478  )

     number of k points=    19  Marzari-Vanderbilt smearing, width (Ry)=  0.0200
                       cart. coord. in units 2pi/alat
        k(    1) = (   0.0000000   0.0000000   0.0000000), wk =   0.0138889
        k(    2) = (   0.0000000   0.0962250   0.0000000), wk =   0.0833333
        k(    3) = (   0.0000000   0.1924501   0.0000000), wk =   0.0833333
        k(    4) = (   0.0000000   0.2886751   0.0000000), wk =   0.0833333
        k(    5) = (   0.0000000   0.3849002   0.0000000), wk =   0.0833333
        k(    6) = (   0.0000000   0.4811252   0.0000000), wk =   0.0833333
        k(    7) = (   0.0000000  -0.5773503   0.0000000), wk =   0.0416667
        k(    8) = (   0.0833333   0.1443376   0.0000000), wk =   0.0833333
        k(    9) = (   0.0833333   0.2405626   0.0000000), wk =   0.1666667
        k(   10) = (   0.0833333   0.3367877   0.0000000), wk =   0.1666667
        k(   11) = (   0.0833333   0.4330127   0.0000000), wk =   0.1666667
        k(   12) = (   0.0833333   0.5292377   0.0000000), wk =   0.1666667
        k(   13) = (   0.1666667   0.2886751   0.0000000), wk =   0.0833333
        k(   14) = (   0.1666667   0.3849002   0.0000000), wk =   0.1666667
        k(   15) = (   0.1666667   0.4811252   0.0000000), wk =   0.1666667
        k(   16) = (   0.1666667   0.5773503   0.0000000), wk =   0.0833333
        k(   17) = (   0.2500000   0.4330127   0.0000000), wk =   0.0833333
        k(   18) = (   0.2500000   0.5292377   0.0000000), wk =   0.1666667
        k(   19) = (   0.3333333   0.5773503   0.0000000), wk =   0.0277778

     Dense  grid:    51311 G-vectors     FFT dimensions: (  27,  27, 162)

     Estimated max dynamical RAM per process >      86.68 MB

     Check: negative core charge=   -0.000001

     Initial potential from superposition of free atoms

     starting charge       7.9999, renormalised to       8.0000

     negative rho (up, down):  5.686E-05 0.000E+00
     Starting wfcs are    8 randomized atomic wfcs

     total cpu time spent up to now is        2.2 secs

     Self-consistent Calculation

     iteration #  1     ecut=    80.00 Ry     beta= 0.70
     Davidson diagonalization with overlap
     ethr =  1.00E-02,  avg # of iterations =  7.1

     Threshold (ethr) on eigenvalues was too large:
     Diagonalizing with lowered threshold

     Davidson diagonalization with overlap
     ethr =  7.94E-04,  avg # of iterations =  6.7

     negative rho (up, down):  2.388E-08 0.000E+00

     total cpu time spent up to now is        6.3 secs

     total energy              =     -23.88227220 Ry
     estimated scf accuracy    <       0.18984473 Ry

     iteration #  2     ecut=    80.00 Ry     beta= 0.70
     Davidson diagonalization with overlap
     ethr =  2.37E-03,  avg # of iterations =  2.3

     negative rho (up, down):  4.584E-08 0.000E+00

     total cpu time spent up to now is        7.5 secs

     total energy              =     -23.89246632 Ry
     estimated scf accuracy    <       0.00634846 Ry

     iteration #  3     ecut=    80.00 Ry     beta= 0.70
     Davidson diagonalization with overlap
     c_bands:  3 eigenvalues not converged
     c_bands:  2 eigenvalues not converged
     c_bands:  2 eigenvalues not converged
     c_bands:  1 eigenvalues not converged
     c_bands:  2 eigenvalues not converged
     c_bands:  3 eigenvalues not converged
     c_bands:  1 eigenvalues not converged
     c_bands:  1 eigenvalues not converged
     c_bands:  3 eigenvalues not converged
     c_bands:  1 eigenvalues not converged
     ethr =  7.94E-05,  avg # of iterations = 18.8

     negative rho (up, down):  3.831E-08 0.000E+00

     total cpu time spent up to now is       13.2 secs

     total energy              =     -23.91534332 Ry
     estimated scf accuracy    <       0.00788436 Ry

     iteration #  4     ecut=    80.00 Ry     beta= 0.70
     Davidson diagonalization with overlap
     ethr =  7.94E-05,  avg # of iterations =  3.9

     negative rho (up, down):  3.652E-07 0.000E+00

     total cpu time spent up to now is       14.6 secs

     total energy              =     -23.91390470 Ry
     estimated scf accuracy    <       0.01221078 Ry

     iteration #  5     ecut=    80.00 Ry     beta= 0.70
     Davidson diagonalization with overlap
     ethr =  7.94E-05,  avg # of iterations =  1.4

     negative rho (up, down):  8.219E-06 0.000E+00

     total cpu time spent up to now is       15.8 secs

     total energy              =     -23.90943740 Ry
     estimated scf accuracy    <       0.00839784 Ry

     iteration #  6     ecut=    80.00 Ry     beta= 0.70
     Davidson diagonalization with overlap
     ethr =  7.94E-05,  avg # of iterations =  1.6

     negative rho (up, down):  7.259E-06 0.000E+00

     total cpu time spent up to now is       17.0 secs

     total energy              =     -23.91019851 Ry
     estimated scf accuracy    <       0.00113193 Ry

     iteration #  7     ecut=    80.00 Ry     beta= 0.70
     Davidson diagonalization with overlap
     c_bands:  1 eigenvalues not converged
     c_bands:  1 eigenvalues not converged
     ethr =  1.41E-05,  avg # of iterations =  8.4

     negative rho (up, down):  5.983E-06 0.000E+00

     total cpu time spent up to now is       19.0 secs

     total energy              =     -23.91136683 Ry
     estimated scf accuracy    <       0.00119417 Ry

     iteration #  8     ecut=    80.00 Ry     beta= 0.70
     Davidson diagonalization with overlap
     ethr =  1.41E-05,  avg # of iterations =  1.5

     negative rho (up, down):  1.208E-04 0.000E+00

     total cpu time spent up to now is       20.2 secs

     total energy              =     -23.91087941 Ry
     estimated scf accuracy    <       0.00279147 Ry

     iteration #  9     ecut=    80.00 Ry     beta= 0.70
     Davidson diagonalization with overlap
     c_bands:  3 eigenvalues not converged
     ethr =  1.41E-05,  avg # of iterations =  8.9

     negative rho (up, down):  2.121E-05 0.000E+00

     total cpu time spent up to now is       23.3 secs

     total energy              =     -23.91007518 Ry
     estimated scf accuracy    <       0.00785090 Ry

     iteration # 10     ecut=    80.00 Ry     beta= 0.70
     Davidson diagonalization with overlap
     ethr =  1.41E-05,  avg # of iterations =  2.9

     negative rho (up, down):  1.405E-05 0.000E+00

     total cpu time spent up to now is       24.7 secs

     total energy              =     -23.90961029 Ry
     estimated scf accuracy    <       0.00146833 Ry

     iteration # 11     ecut=    80.00 Ry     beta= 0.70
     Davidson diagonalization with overlap
     ethr =  1.41E-05,  avg # of iterations =  3.9

     negative rho (up, down):  1.033E-05 0.000E+00

     total cpu time spent up to now is       26.4 secs

     total energy              =     -23.91017132 Ry
     estimated scf accuracy    <       0.00005359 Ry

     iteration # 12     ecut=    80.00 Ry     beta= 0.70
     Davidson diagonalization with overlap
     ethr =  6.70E-07,  avg # of iterations =  8.8

     negative rho (up, down):  3.002E-05 0.000E+00

     total cpu time spent up to now is       29.0 secs

     total energy              =     -23.91051371 Ry
     estimated scf accuracy    <       0.00016630 Ry

     iteration # 13     ecut=    80.00 Ry     beta= 0.70
     Davidson diagonalization with overlap
     c_bands:  1 eigenvalues not converged
     ethr =  6.70E-07,  avg # of iterations =  8.7

     negative rho (up, down):  5.524E-05 0.000E+00

     total cpu time spent up to now is       32.0 secs

     total energy              =     -23.91066294 Ry
     estimated scf accuracy    <       0.00114131 Ry

     iteration # 14     ecut=    80.00 Ry     beta= 0.70
     Davidson diagonalization with overlap
     ethr =  6.70E-07,  avg # of iterations =  1.9

     negative rho (up, down):  3.984E-05 0.000E+00

     total cpu time spent up to now is       33.2 secs

     total energy              =     -23.91073080 Ry
     estimated scf accuracy    <       0.00096448 Ry

     iteration # 15     ecut=    80.00 Ry     beta= 0.70
     Davidson diagonalization with overlap
     ethr =  6.70E-07,  avg # of iterations =  1.2

     negative rho (up, down):  7.429E-05 0.000E+00

     total cpu time spent up to now is       34.3 secs

     total energy              =     -23.91074179 Ry
     estimated scf accuracy    <       0.00106481 Ry

     iteration # 16     ecut=    80.00 Ry     beta= 0.70
     Davidson diagonalization with overlap
     ethr =  6.70E-07,  avg # of iterations =  1.1

     negative rho (up, down):  6.746E-05 0.000E+00

     total cpu time spent up to now is       35.4 secs

     total energy              =     -23.91067291 Ry
     estimated scf accuracy    <       0.00104900 Ry

     iteration # 17     ecut=    80.00 Ry     beta= 0.70
     Davidson diagonalization with overlap
     ethr =  6.70E-07,  avg # of iterations =  1.1

     negative rho (up, down):  3.695E-05 0.000E+00

     total cpu time spent up to now is       36.4 secs

     total energy              =     -23.91008151 Ry
     estimated scf accuracy    <       0.00093041 Ry

     iteration # 18     ecut=    80.00 Ry     beta= 0.70
     Davidson diagonalization with overlap
     c_bands:  1 eigenvalues not converged
     ethr =  6.70E-07,  avg # of iterations =  6.3

     negative rho (up, down):  1.445E-05 0.000E+00

     total cpu time spent up to now is       38.6 secs

     total energy              =     -23.91036433 Ry
     estimated scf accuracy    <       0.00003215 Ry

     iteration # 19     ecut=    80.00 Ry     beta= 0.70
     Davidson diagonalization with overlap
     ethr =  4.02E-07,  avg # of iterations =  7.6

     negative rho (up, down):  2.058E-05 0.000E+00

     total cpu time spent up to now is       41.1 secs

     total energy              =     -23.91024404 Ry
     estimated scf accuracy    <       0.00032227 Ry

     iteration # 20     ecut=    80.00 Ry     beta= 0.70
     Davidson diagonalization with overlap
     ethr =  4.02E-07,  avg # of iterations =  4.1

     negative rho (up, down):  2.304E-05 0.000E+00

     total cpu time spent up to now is       43.0 secs

     total energy              =     -23.91024350 Ry
     estimated scf accuracy    <       0.00003451 Ry

     iteration # 21     ecut=    80.00 Ry     beta= 0.70
     Davidson diagonalization with overlap
     ethr =  4.02E-07,  avg # of iterations =  3.2

     negative rho (up, down):  2.324E-05 0.000E+00

     total cpu time spent up to now is       44.8 secs

     total energy              =     -23.91025446 Ry
     estimated scf accuracy    <       0.00000046 Ry

     iteration # 22     ecut=    80.00 Ry     beta= 0.70
     Davidson diagonalization with overlap
     ethr =  5.81E-09,  avg # of iterations =  5.7

     negative rho (up, down):  2.321E-05 0.000E+00

     total cpu time spent up to now is       47.5 secs

     total energy              =     -23.91025724 Ry
     estimated scf accuracy    <       0.00000288 Ry

     iteration # 23     ecut=    80.00 Ry     beta= 0.70
     Davidson diagonalization with overlap
     ethr =  5.81E-09,  avg # of iterations =  4.2

     negative rho (up, down):  2.345E-05 0.000E+00

     total cpu time spent up to now is       51.0 secs

     total energy              =     -23.91025804 Ry
     estimated scf accuracy    <       0.00000207 Ry

     iteration # 24     ecut=    80.00 Ry     beta= 0.70
     Davidson diagonalization with overlap
     ethr =  5.81E-09,  avg # of iterations =  1.0

     negative rho (up, down):  2.339E-05 0.000E+00

     total cpu time spent up to now is       53.0 secs

     total energy              =     -23.91025752 Ry
     estimated scf accuracy    <       0.00000112 Ry

     iteration # 25     ecut=    80.00 Ry     beta= 0.70
     Davidson diagonalization with overlap
     ethr =  5.81E-09,  avg # of iterations =  4.1

     negative rho (up, down):  2.310E-05 0.000E+00

     total cpu time spent up to now is       56.3 secs

     total energy              =     -23.91025777 Ry
     estimated scf accuracy    <       0.00000053 Ry

     iteration # 26     ecut=    80.00 Ry     beta= 0.70
     Davidson diagonalization with overlap
     ethr =  5.81E-09,  avg # of iterations =  1.1

     negative rho (up, down):  2.312E-05 0.000E+00

     total cpu time spent up to now is       58.0 secs

     total energy              =     -23.91025775 Ry
     estimated scf accuracy    <       0.00000009 Ry

     iteration # 27     ecut=    80.00 Ry     beta= 0.70
     Davidson diagonalization with overlap
     ethr =  1.14E-09,  avg # of iterations =  3.8

     negative rho (up, down):  2.305E-05 0.000E+00

     total cpu time spent up to now is       59.8 secs

     total energy              =     -23.91025780 Ry
     estimated scf accuracy    <       0.00000001 Ry

     iteration # 28     ecut=    80.00 Ry     beta= 0.70
     Davidson diagonalization with overlap
     ethr =  1.44E-10,  avg # of iterations =  3.6

     negative rho (up, down):  2.306E-05 0.000E+00

     total cpu time spent up to now is       61.3 secs

     total energy              =     -23.91025781 Ry
     estimated scf accuracy    <          1.5E-09 Ry

     iteration # 29     ecut=    80.00 Ry     beta= 0.70
     Davidson diagonalization with overlap
     ethr =  1.90E-11,  avg # of iterations =  4.3

     negative rho (up, down):  2.309E-05 0.000E+00

     total cpu time spent up to now is       62.9 secs

     total energy              =     -23.91025782 Ry
     estimated scf accuracy    <       0.00000002 Ry

     iteration # 30     ecut=    80.00 Ry     beta= 0.70
     Davidson diagonalization with overlap
     ethr =  1.90E-11,  avg # of iterations =  1.6

     negative rho (up, down):  2.305E-05 0.000E+00

     total cpu time spent up to now is       64.1 secs

     total energy              =     -23.91025780 Ry
     estimated scf accuracy    <       0.00000002 Ry

     iteration # 31     ecut=    80.00 Ry     beta= 0.70
     Davidson diagonalization with overlap
     ethr =  1.90E-11,  avg # of iterations =  4.1

     negative rho (up, down):  2.304E-05 0.000E+00

     total cpu time spent up to now is       66.1 secs

     End of self-consistent calculation

          k = 0.0000 0.0000 0.0000 (  6489 PWs)   bands (ev):

   -21.2470  -9.3497  -4.7890  -4.7890   1.4872   2.3546   2.6944   4.6240

          k = 0.0000 0.0962 0.0000 (  6493 PWs)   bands (ev):

   -21.0831  -9.1535  -5.4378  -5.1274   1.7109   2.5801   2.9213   4.8474

          k = 0.0000 0.1925 0.0000 (  6481 PWs)   bands (ev):

   -20.5932  -8.5700  -7.0720  -5.9198   2.3819   3.2552   3.6023   5.5149

          k = 0.0000 0.2887 0.0000 (  6429 PWs)   bands (ev):

   -19.7829  -9.1676  -7.6186  -6.7997   3.4980   4.3627   4.7362   5.5486

          k = 0.0000 0.3849 0.0000 (  6414 PWs)   bands (ev):

   -18.6643 -11.3692  -7.5333  -6.3494   3.2003   5.0482   5.9697   6.0056

          k = 0.0000 0.4811 0.0000 (  6418 PWs)   bands (ev):

   -17.2682 -13.4688  -8.0063  -4.9256   1.0630   5.7630   7.0641   7.9636

          k = 0.0000-0.5774 0.0000 (  6386 PWs)   bands (ev):

   -16.0015 -14.9779  -8.1687  -4.0803  -0.0359   5.6853   9.3780   9.5242

          k = 0.0833 0.1443 0.0000 (  6473 PWs)   bands (ev):

   -20.7562  -8.7635  -6.4691  -5.8046   2.1584   3.0306   3.3754   5.2934

          k = 0.0833 0.2406 0.0000 (  6444 PWs)   bands (ev):

   -20.1061  -8.1759  -7.9949  -6.8024   3.0528   3.9277   4.2837   6.1629

          k = 0.0833 0.3368 0.0000 (  6420 PWs)   bands (ev):

   -19.1415 -10.2469  -7.6885  -6.8781   4.2131   4.3899   5.2948   5.6438

          k = 0.0833 0.4330 0.0000 (  6423 PWs)   bands (ev):

   -17.8811 -12.3686  -8.3233  -5.4975   2.0112   6.1436   6.6133   7.0605

          k = 0.0833 0.5292 0.0000 (  6418 PWs)   bands (ev):

   -16.4006 -14.3106  -8.6517  -4.1871   0.2407   6.4217   8.3669   9.2247

          k = 0.1667 0.2887 0.0000 (  6421 PWs)   bands (ev):

   -19.3016  -9.5037  -8.1641  -7.0570   4.1691   4.6710   5.0427   5.4192

          k = 0.1667 0.3849 0.0000 (  6439 PWs)   bands (ev):

   -18.1939 -11.2297  -9.2198  -5.8030   2.7211   5.7230   6.5820   7.0060

          k = 0.1667 0.4811 0.0000 (  6433 PWs)   bands (ev):

   -16.8178 -13.1403  -9.7950  -4.3752   0.8070   7.6883   8.3297   8.4696

          k = 0.1667 0.5774 0.0000 (  6408 PWs)   bands (ev):

   -15.5808 -14.5777  -9.9797  -3.4817  -0.2622   8.2265   9.8963   9.9439

          k = 0.2500 0.4330 0.0000 (  6437 PWs)   bands (ev):

   -16.9657 -12.2626 -10.7038  -4.4593   1.1052   7.4781   8.1813   8.8146

          k = 0.2500 0.5292 0.0000 (  6421 PWs)   bands (ev):

   -15.5427 -13.6845 -11.4108  -3.0725  -0.4164   9.1625   9.5818  10.4877

          k = 0.3333 0.5774 0.0000 (  6408 PWs)   bands (ev):

   -14.3246 -14.3246 -12.3098  -1.7154  -1.7154   8.9032  11.1677  11.1678

     the Fermi energy is    -1.6775 ev

!    total energy              =     -23.91025781 Ry
     estimated scf accuracy    <          1.6E-10 Ry
     smearing contrib. (-TS)   =      -0.00018232 Ry
     internal energy E=F+TS    =     -23.91007548 Ry

     The total energy is F=E-TS. E is the sum of the following terms:
     one-electron contribution =    -157.39809376 Ry
     hartree contribution      =      80.16160110 Ry
     xc contribution           =      -8.30322994 Ry
     ewald contribution        =      61.62964712 Ry

     convergence has been achieved in  31 iterations

     negative rho (up, down):  2.304E-05 0.000E+00

     Forces acting on atoms (cartesian axes, Ry/au):

     atom    1 type  1   force =    -0.00000000   -0.00000000    0.00000000
     atom    2 type  1   force =     0.00000000    0.00000000    0.00000000

     Total force =     0.000000     Total SCF correction =     0.000000


     Computing stress (Cartesian axis) and pressure


     negative rho (up, down):  2.304E-05 0.000E+00
          total   stress  (Ry/bohr**3)                   (kbar)     P=        0.28
   0.00000290   0.00000000   0.00000000            0.43        0.00        0.00
   0.00000000   0.00000290  -0.00000000            0.00        0.43       -0.00
   0.00000000   0.00000000  -0.00000006            0.00        0.00       -0.01


     BFGS Geometry Optimization
     Energy error            =      0.0E+00 Ry
     Gradient error          =      1.4E-25 Ry/Bohr
     Cell gradient error     =      4.3E-01 kbar

     number of scf cycles    =   1
     number of bfgs steps    =   0

     enthalpy           new  =     -23.9102578077 Ry

     new trust radius        =       0.0003341711 bohr
     new conv_thr            =       0.0000000010 Ry

     new unit-cell volume =    532.26698 a.u.^3 (    78.87383 Ang^3 )
     density =      0.50573 g/cm^3

CELL_PARAMETERS (alat=  4.65610675)
   1.000072428   0.000000000   0.000000000
  -0.500036214   0.866088128   0.000000000
   0.000000000   0.000000000   6.087895618

ATOMIC_POSITIONS (crystal)
C             0.3333333330        0.6666666660        0.5000000000
C             0.6666666660        0.3333333330        0.5000000000



     Writing config-only to output data dir ../tmp/gr.save/
     NEW-OLD atomic charge density approx. for the potential

     Check: negative core charge=   -0.000001

     negative rho (up, down):  2.301E-05 0.000E+00
     extrapolated charge    8.00116, renormalised to    8.00000

     total cpu time spent up to now is       71.0 secs

     Self-consistent Calculation

     iteration #  1     ecut=    80.00 Ry     beta= 0.70
     Davidson diagonalization with overlap
     ethr =  1.00E-06,  avg # of iterations =  2.0

     Threshold (ethr) on eigenvalues was too large:
     Diagonalizing with lowered threshold

     Davidson diagonalization with overlap
     ethr =  2.03E-09,  avg # of iterations =  4.3

     negative rho (up, down):  2.297E-05 0.000E+00

     total cpu time spent up to now is       74.0 secs

     total energy              =     -23.91025739 Ry
     estimated scf accuracy    <       0.00000031 Ry

     iteration #  2     ecut=    80.00 Ry     beta= 0.70
     Davidson diagonalization with overlap
     ethr =  3.87E-09,  avg # of iterations =  4.2

     negative rho (up, down):  2.299E-05 0.000E+00

     total cpu time spent up to now is       75.6 secs

     total energy              =     -23.91025798 Ry
     estimated scf accuracy    <       0.00000025 Ry

     iteration #  3     ecut=    80.00 Ry     beta= 0.70
     Davidson diagonalization with overlap
     ethr =  3.09E-09,  avg # of iterations =  1.0

     negative rho (up, down):  2.299E-05 0.000E+00

     total cpu time spent up to now is       76.6 secs

     total energy              =     -23.91025795 Ry
     estimated scf accuracy    <       0.00000008 Ry

     iteration #  4     ecut=    80.00 Ry     beta= 0.70
     Davidson diagonalization with overlap
     ethr =  1.01E-09,  avg # of iterations =  2.2

     negative rho (up, down):  2.299E-05 0.000E+00

     total cpu time spent up to now is       77.9 secs

     total energy              =     -23.91025797 Ry
     estimated scf accuracy    <          4.2E-09 Ry

     iteration #  5     ecut=    80.00 Ry     beta= 0.70
     Davidson diagonalization with overlap
     ethr =  5.24E-11,  avg # of iterations =  4.3

     negative rho (up, down):  2.300E-05 0.000E+00

     total cpu time spent up to now is       79.6 secs

     End of self-consistent calculation

          k = 0.0000 0.0000 0.0000 (  6489 PWs)   bands (ev):

   -21.2458  -9.3489  -4.7896  -4.7896   1.4869   2.3542   2.6940   4.6235

          k =-0.0000 0.0962 0.0000 (  6493 PWs)   bands (ev):

   -21.0819  -9.1527  -5.4383  -5.1279   1.7105   2.5796   2.9209   4.8470

          k =-0.0000 0.1924 0.0000 (  6481 PWs)   bands (ev):

   -20.5920  -8.5693  -7.0724  -5.9201   2.3814   3.2546   3.6018   5.5143

          k =-0.0000 0.2887 0.0000 (  6429 PWs)   bands (ev):

   -19.7818  -9.1677  -7.6180  -6.7999   3.4974   4.3619   4.7355   5.5464

          k =-0.0000 0.3849 0.0000 (  6414 PWs)   bands (ev):

   -18.6634 -11.3690  -7.5333  -6.3491   3.1989   5.0473   5.9687   6.0030

          k =-0.0000 0.4811 0.0000 (  6418 PWs)   bands (ev):

   -17.2676 -13.4684  -8.0062  -4.9256   1.0621   5.7604   7.0629   7.9620

          k = 0.0000-0.5773 0.0000 (  6386 PWs)   bands (ev):

   -16.0013 -14.9770  -8.1686  -4.0805  -0.0366   5.6826   9.3765   9.5227

          k = 0.0833 0.1443 0.0000 (  6473 PWs)   bands (ev):

   -20.7551  -8.7628  -6.4695  -5.8050   2.1580   3.0300   3.3749   5.2929

          k = 0.0833 0.2405 0.0000 (  6444 PWs)   bands (ev):

   -20.1050  -8.1762  -7.9943  -6.8026   3.0523   3.9270   4.2830   6.1621

          k = 0.0833 0.3368 0.0000 (  6420 PWs)   bands (ev):

   -19.1406 -10.2469  -7.6885  -6.8777   4.2114   4.3892   5.2938   5.6429

          k = 0.0833 0.4330 0.0000 (  6423 PWs)   bands (ev):

   -17.8804 -12.3683  -8.3232  -5.4974   2.0099   6.1426   6.6106   7.0593

          k = 0.0833 0.5292 0.0000 (  6418 PWs)   bands (ev):

   -16.4002 -14.3100  -8.6516  -4.1873   0.2399   6.4189   8.3656   9.2231

          k = 0.1667 0.2887 0.0000 (  6421 PWs)   bands (ev):

   -19.3007  -9.5039  -8.1640  -7.0566   4.1684   4.6691   5.0419   5.4184

          k = 0.1667 0.3849 0.0000 (  6439 PWs)   bands (ev):

   -18.1931 -11.2297  -9.2195  -5.8029   2.7197   5.7221   6.5809   7.0049

          k = 0.1667 0.4811 0.0000 (  6433 PWs)   bands (ev):

   -16.8172 -13.1400  -9.7947  -4.3753   0.8059   7.6870   8.3268   8.4681

          k = 0.1667 0.5773 0.0000 (  6408 PWs)   bands (ev):

   -15.5806 -14.5770  -9.9793  -3.4820  -0.2630   8.2236   9.8945   9.9423

          k = 0.2500 0.4330 0.0000 (  6437 PWs)   bands (ev):

   -16.9650 -12.2626 -10.7032  -4.4594   1.1040   7.4769   8.1800   8.8133

          k = 0.2500 0.5292 0.0000 (  6421 PWs)   bands (ev):

   -15.5423 -13.6843 -11.4101  -3.0728  -0.4172   9.1613   9.5803  10.4846

          k = 0.3333 0.5773 0.0000 (  6408 PWs)   bands (ev):

   -14.3245 -14.3245 -12.3087  -1.7160  -1.7160   8.9021  11.1655  11.1655

     the Fermi energy is    -1.6781 ev

!    total energy              =     -23.91025798 Ry
     estimated scf accuracy    <          6.0E-10 Ry
     smearing contrib. (-TS)   =      -0.00018232 Ry
     internal energy E=F+TS    =     -23.91007565 Ry

     The total energy is F=E-TS. E is the sum of the following terms:
     one-electron contribution =    -157.37462847 Ry
     hartree contribution      =      80.14958704 Ry
     xc contribution           =      -8.30289031 Ry
     ewald contribution        =      61.61785608 Ry

     convergence has been achieved in   5 iterations

     negative rho (up, down):  2.300E-05 0.000E+00

     Forces acting on atoms (cartesian axes, Ry/au):

     atom    1 type  1   force =     0.00000000   -0.00000000    0.00000000
     atom    2 type  1   force =    -0.00000000    0.00000000    0.00000000

     Total force =     0.000000     Total SCF correction =     0.000000


     Computing stress (Cartesian axis) and pressure


     negative rho (up, down):  2.300E-05 0.000E+00
          total   stress  (Ry/bohr**3)                   (kbar)     P=        0.12
   0.00000143   0.00000000  -0.00000000            0.21        0.00       -0.00
   0.00000000   0.00000143   0.00000000            0.00        0.21        0.00
   0.00000000  -0.00000000  -0.00000038            0.00       -0.00       -0.06

     Energy error            =      1.7E-07 Ry
     Gradient error          =      1.6E-25 Ry/Bohr
     Cell gradient error     =      2.1E-01 kbar

     number of scf cycles    =   2
     number of bfgs steps    =   1

     enthalpy           old  =     -23.9102578077 Ry
     enthalpy           new  =     -23.9102579751 Ry

     CASE: enthalpy          _new < enthalpy          _old

     new trust radius        =       0.0003258219 bohr
     new conv_thr            =            1.0E-11 Ry

     new unit-cell volume =    532.34215 a.u.^3 (    78.88497 Ang^3 )
     density =      0.50565 g/cm^3

CELL_PARAMETERS (alat=  4.65610675)
   1.000143046   0.000000000   0.000000000
  -0.500071523   0.866149285   0.000000000
   0.000000000   0.000000000   6.087895618

ATOMIC_POSITIONS (crystal)
C             0.3333333330        0.6666666660        0.5000000000
C             0.6666666660        0.3333333330        0.5000000000



     Writing config-only to output data dir ../tmp/gr.save/
     NEW-OLD atomic charge density approx. for the potential

     Check: negative core charge=   -0.000001

     negative rho (up, down):  2.298E-05 0.000E+00
     extrapolated charge    8.00113, renormalised to    8.00000

     total cpu time spent up to now is       84.5 secs

     Self-consistent Calculation

     iteration #  1     ecut=    80.00 Ry     beta= 0.70
     Davidson diagonalization with overlap
     ethr =  1.00E-06,  avg # of iterations =  2.0

     Threshold (ethr) on eigenvalues was too large:
     Diagonalizing with lowered threshold

     Davidson diagonalization with overlap
     ethr =  1.92E-09,  avg # of iterations =  4.1

     negative rho (up, down):  2.293E-05 0.000E+00

     total cpu time spent up to now is       87.9 secs

     total energy              =     -23.91025749 Ry
     estimated scf accuracy    <       0.00000028 Ry

     iteration #  2     ecut=    80.00 Ry     beta= 0.70
     Davidson diagonalization with overlap
     ethr =  3.44E-09,  avg # of iterations =  4.4

     negative rho (up, down):  2.295E-05 0.000E+00

     total cpu time spent up to now is       89.6 secs

     total energy              =     -23.91025805 Ry
     estimated scf accuracy    <       0.00000024 Ry

     iteration #  3     ecut=    80.00 Ry     beta= 0.70
     Davidson diagonalization with overlap
     ethr =  2.97E-09,  avg # of iterations =  1.1

     negative rho (up, down):  2.295E-05 0.000E+00

     total cpu time spent up to now is       90.7 secs

     total energy              =     -23.91025801 Ry
     estimated scf accuracy    <       0.00000008 Ry

     iteration #  4     ecut=    80.00 Ry     beta= 0.70
     Davidson diagonalization with overlap
     ethr =  1.00E-09,  avg # of iterations =  2.1

     negative rho (up, down):  2.295E-05 0.000E+00

     total cpu time spent up to now is       91.9 secs

     total energy              =     -23.91025803 Ry
     estimated scf accuracy    <          6.2E-09 Ry

     iteration #  5     ecut=    80.00 Ry     beta= 0.70
     Davidson diagonalization with overlap
     ethr =  7.79E-11,  avg # of iterations =  4.1

     negative rho (up, down):  2.296E-05 0.000E+00

     total cpu time spent up to now is       93.6 secs

     total energy              =     -23.91025804 Ry
     estimated scf accuracy    <          1.1E-10 Ry

     iteration #  6     ecut=    80.00 Ry     beta= 0.70
     Davidson diagonalization with overlap
     ethr =  1.42E-12,  avg # of iterations =  5.0

     negative rho (up, down):  2.296E-05 0.000E+00

     total cpu time spent up to now is       95.4 secs

     total energy              =     -23.91025804 Ry
     estimated scf accuracy    <          1.0E-09 Ry

     iteration #  7     ecut=    80.00 Ry     beta= 0.70
     Davidson diagonalization with overlap
     ethr =  1.42E-12,  avg # of iterations =  4.3

     negative rho (up, down):  2.297E-05 0.000E+00

     total cpu time spent up to now is       96.9 secs

     total energy              =     -23.91025804 Ry
     estimated scf accuracy    <          3.0E-09 Ry

     iteration #  8     ecut=    80.00 Ry     beta= 0.70
     Davidson diagonalization with overlap
     ethr =  1.42E-12,  avg # of iterations =  4.3

     negative rho (up, down):  2.297E-05 0.000E+00

     total cpu time spent up to now is       98.9 secs

     total energy              =     -23.91025804 Ry
     estimated scf accuracy    <          1.5E-10 Ry

     iteration #  9     ecut=    80.00 Ry     beta= 0.70
     Davidson diagonalization with overlap
     ethr =  1.42E-12,  avg # of iterations =  1.1

     negative rho (up, down):  2.297E-05 0.000E+00

     total cpu time spent up to now is      100.3 secs

     total energy              =     -23.91025804 Ry
     estimated scf accuracy    <          1.6E-10 Ry

     iteration # 10     ecut=    80.00 Ry     beta= 0.70
     Davidson diagonalization with overlap
     ethr =  1.42E-12,  avg # of iterations =  1.1

     negative rho (up, down):  2.297E-05 0.000E+00

     total cpu time spent up to now is      101.7 secs

     total energy              =     -23.91025804 Ry
     estimated scf accuracy    <          1.2E-10 Ry

     iteration # 11     ecut=    80.00 Ry     beta= 0.70
     Davidson diagonalization with overlap
     ethr =  1.42E-12,  avg # of iterations =  1.2

     negative rho (up, down):  2.297E-05 0.000E+00

     total cpu time spent up to now is      102.8 secs

     total energy              =     -23.91025804 Ry
     estimated scf accuracy    <          2.2E-10 Ry

     iteration # 12     ecut=    80.00 Ry     beta= 0.70
     Davidson diagonalization with overlap
     ethr =  1.42E-12,  avg # of iterations =  1.0

     negative rho (up, down):  2.297E-05 0.000E+00

     total cpu time spent up to now is      103.9 secs

     total energy              =     -23.91025804 Ry
     estimated scf accuracy    <          1.2E-10 Ry

     iteration # 13     ecut=    80.00 Ry     beta= 0.70
     Davidson diagonalization with overlap
     ethr =  1.42E-12,  avg # of iterations =  1.0

     negative rho (up, down):  2.297E-05 0.000E+00

     total cpu time spent up to now is      105.0 secs

     total energy              =     -23.91025804 Ry
     estimated scf accuracy    <          1.7E-10 Ry

     iteration # 14     ecut=    80.00 Ry     beta= 0.70
     Davidson diagonalization with overlap
     ethr =  1.42E-12,  avg # of iterations =  1.0

     negative rho (up, down):  2.297E-05 0.000E+00

     total cpu time spent up to now is      106.1 secs

     End of self-consistent calculation

          k = 0.0000 0.0000 0.0000 (  6489 PWs)   bands (ev):

   -21.2451  -9.3484  -4.7907  -4.7907   1.4867   2.3540   2.6936   4.6231

          k =-0.0000 0.0962 0.0000 (  6493 PWs)   bands (ev):

   -21.0813  -9.1522  -5.4394  -5.1289   1.7103   2.5794   2.9205   4.8466

          k =-0.0000 0.1924 0.0000 (  6481 PWs)   bands (ev):

   -20.5914  -8.5690  -7.0733  -5.9210   2.3812   3.2543   3.6013   5.5138

          k =-0.0000 0.2886 0.0000 (  6429 PWs)   bands (ev):

   -19.7813  -9.1684  -7.6179  -6.8006   3.4970   4.3614   4.7349   5.5440

          k =-0.0000 0.3848 0.0000 (  6414 PWs)   bands (ev):

   -18.6631 -11.3695  -7.5339  -6.3492   3.1971   5.0467   5.9679   6.0001

          k =-0.0000 0.4811 0.0000 (  6418 PWs)   bands (ev):

   -17.2674 -13.4685  -8.0067  -4.9260   1.0607   5.7573   7.0620   7.9609

          k = 0.0000-0.5773 0.0000 (  6386 PWs)   bands (ev):

   -16.0016 -14.9767  -8.1691  -4.0810  -0.0376   5.6795   9.3752   9.5214

          k = 0.0833 0.1443 0.0000 (  6473 PWs)   bands (ev):

   -20.7544  -8.7624  -6.4705  -5.8059   2.1578   3.0297   3.3745   5.2925

          k = 0.0833 0.2405 0.0000 (  6444 PWs)   bands (ev):

   -20.1045  -8.1770  -7.9940  -6.8033   3.0519   3.9266   4.2825   6.1614

          k = 0.0833 0.3367 0.0000 (  6420 PWs)   bands (ev):

   -19.1401 -10.2475  -7.6891  -6.8777   4.2093   4.3886   5.2932   5.6420

          k = 0.0833 0.4330 0.0000 (  6423 PWs)   bands (ev):

   -17.8801 -12.3686  -8.3237  -5.4976   2.0084   6.1417   6.6076   7.0584

          k = 0.0833 0.5292 0.0000 (  6418 PWs)   bands (ev):

   -16.4002 -14.3100  -8.6520  -4.1878   0.2388   6.4158   8.3645   9.2218

          k = 0.1666 0.2886 0.0000 (  6421 PWs)   bands (ev):

   -19.3002  -9.5047  -8.1644  -7.0565   4.1678   4.6668   5.0413   5.4177

          k = 0.1666 0.3848 0.0000 (  6439 PWs)   bands (ev):

   -18.1928 -11.2302  -9.2198  -5.8030   2.7179   5.7213   6.5801   7.0039

          k = 0.1666 0.4811 0.0000 (  6433 PWs)   bands (ev):

   -16.8172 -13.1402  -9.7950  -4.3757   0.8046   7.6860   8.3236   8.4669

          k = 0.1666 0.5773 0.0000 (  6408 PWs)   bands (ev):

   -15.5809 -14.5768  -9.9796  -3.4827  -0.2641   8.2203   9.8927   9.9408

          k = 0.2500 0.4330 0.0000 (  6437 PWs)   bands (ev):

   -16.9649 -12.2632 -10.7031  -4.4598   1.1025   7.4759   8.1790   8.8120

          k = 0.2500 0.5292 0.0000 (  6421 PWs)   bands (ev):

   -15.5425 -13.6845 -11.4100  -3.0735  -0.4184   9.1600   9.5789  10.4812

          k = 0.3333 0.5773 0.0000 (  6408 PWs)   bands (ev):

   -14.3249 -14.3249 -12.3082  -1.7170  -1.7170   8.9010  11.1631  11.1631

     the Fermi energy is    -1.6791 ev

!    total energy              =     -23.91025804 Ry
     estimated scf accuracy    <          5.6E-12 Ry
     smearing contrib. (-TS)   =      -0.00018232 Ry
     internal energy E=F+TS    =     -23.91007571 Ry

     The total energy is F=E-TS. E is the sum of the following terms:
     one-electron contribution =    -157.35192412 Ry
     hartree contribution      =      80.13807017 Ry
     xc contribution           =      -8.30258407 Ry
     ewald contribution        =      61.60636231 Ry

     convergence has been achieved in  14 iterations

     negative rho (up, down):  2.297E-05 0.000E+00

     Forces acting on atoms (cartesian axes, Ry/au):

     atom    1 type  1   force =     0.00000000    0.00000000    0.00000000
     atom    2 type  1   force =    -0.00000000   -0.00000000    0.00000000

     Total force =     0.000000     Total SCF correction =     0.000000


     Computing stress (Cartesian axis) and pressure


     negative rho (up, down):  2.297E-05 0.000E+00
          total   stress  (Ry/bohr**3)                   (kbar)     P=        0.01
   0.00000017  -0.00000000   0.00000000            0.02       -0.00        0.00
  -0.00000000   0.00000017   0.00000000           -0.00        0.02        0.00
  -0.00000000  -0.00000000  -0.00000016           -0.00       -0.00       -0.02

     Energy error            =      6.1E-08 Ry
     Gradient error          =      3.2E-25 Ry/Bohr
     Cell gradient error     =      2.4E-02 kbar

     bfgs converged in   3 scf cycles and   2 bfgs steps
     (criteria: energy <  1.0E-05 Ry, force <  1.0E-04Ry/Bohr, cell <  5.0E-02kbar)

     End of BFGS Geometry Optimization

     Final enthalpy           =     -23.9102580362 Ry

     File ../tmp/gr.bfgs deleted, as requested
Begin final coordinates
     new unit-cell volume =    532.34215 a.u.^3 (    78.88497 Ang^3 )
     density =      0.50565 g/cm^3

CELL_PARAMETERS (alat=  4.65610675)
   1.000143046   0.000000000   0.000000000
  -0.500071523   0.866149285   0.000000000
   0.000000000   0.000000000   6.087895618

ATOMIC_POSITIONS (crystal)
C             0.3333333330        0.6666666660        0.5000000000
C             0.6666666660        0.3333333330        0.5000000000
End final coordinates



     Writing config-only to output data dir ../tmp/gr.save/

     Final scf calculation at the relaxed structure.
     The G-vectors are recalculated for the final unit cell
     Results may differ from those at the preceding step.

     G-vector sticks info
     --------------------
     sticks:   dense  smooth     PW     G-vecs:    dense   smooth      PW
     Sum         475     475    151                51311    51311    8663

     Using Slab Decomposition



     bravais-lattice index     =            4
     lattice parameter (alat)  =       4.6561  a.u.
     unit-cell volume          =     532.3422 (a.u.)^3
     number of atoms/cell      =            2
     number of atomic types    =            1
     number of electrons       =         8.00
     number of Kohn-Sham states=            8
     kinetic-energy cutoff     =      80.0000  Ry
     charge density cutoff     =     320.0000  Ry
     scf convergence threshold =      1.0E-11
     mixing beta               =       0.7000
     number of iterations used =            8  plain     mixing
     press convergence thresh. =      5.0E-02
     Exchange-correlation= PBE
                           (   1   4   3   4   0   0   0)

     celldm(1)=   4.656107  celldm(2)=   0.000000  celldm(3)=   6.087896
     celldm(4)=   0.000000  celldm(5)=   0.000000  celldm(6)=   0.000000

     crystal axes: (cart. coord. in units of alat)
               a(1) = (   1.000143   0.000000   0.000000 )  
               a(2) = (  -0.500072   0.866149   0.000000 )  
               a(3) = (   0.000000   0.000000   6.087896 )  

     reciprocal axes: (cart. coord. in units 2 pi/alat)
               b(1) = (  0.999857  0.577268 -0.000000 )  
               b(2) = ( -0.000000  1.154535  0.000000 )  
               b(3) = (  0.000000 -0.000000  0.164260 )  


     PseudoPot. # 1 for C  read from file:
     ../pseudo/C.pbe-n-rrkjus_psl.0.1.UPF
     MD5 check sum: 96a6a315177d77e6c95bf6fd3870f9e3
     Pseudo is Ultrasoft + core correction, Zval =  4.0
     Generated using &quot;atomic&quot; code by A. Dal Corso  v.6.3MaX
     Using radial grid of 1073 points,  4 beta functions with: 
                l(1) =   0
                l(2) =   0
                l(3) =   1
                l(4) =   1
     Q(r) pseudized with 0 coefficients 


     atomic species   valence    mass     pseudopotential
        C              4.00    12.01070     C ( 1.00)

     24 Sym. Ops., with inversion, found



   Cartesian axes

     site n.     atom                  positions (alat units)
         1           C   tau(   1) = (   0.0000000   0.5774329   3.0439478  )
         2           C   tau(   2) = (   0.5000715   0.2887164   3.0439478  )

     number of k points=    19  Marzari-Vanderbilt smearing, width (Ry)=  0.0200
                       cart. coord. in units 2pi/alat
        k(    1) = (   0.0000000   0.0000000   0.0000000), wk =   0.0138889
        k(    2) = (  -0.0000000   0.0962113   0.0000000), wk =   0.0833333
        k(    3) = (  -0.0000000   0.1924226   0.0000000), wk =   0.0833333
        k(    4) = (  -0.0000000   0.2886338   0.0000000), wk =   0.0833333
        k(    5) = (  -0.0000000   0.3848451   0.0000000), wk =   0.0833333
        k(    6) = (  -0.0000000   0.4810564   0.0000000), wk =   0.0833333
        k(    7) = (   0.0000000  -0.5772677   0.0000000), wk =   0.0416667
        k(    8) = (   0.0833214   0.1443169   0.0000000), wk =   0.0833333
        k(    9) = (   0.0833214   0.2405282   0.0000000), wk =   0.1666667
        k(   10) = (   0.0833214   0.3367395   0.0000000), wk =   0.1666667
        k(   11) = (   0.0833214   0.4329508   0.0000000), wk =   0.1666667
        k(   12) = (   0.0833214   0.5291621   0.0000000), wk =   0.1666667
        k(   13) = (   0.1666428   0.2886338   0.0000000), wk =   0.0833333
        k(   14) = (   0.1666428   0.3848451   0.0000000), wk =   0.1666667
        k(   15) = (   0.1666428   0.4810564   0.0000000), wk =   0.1666667
        k(   16) = (   0.1666428   0.5772677   0.0000000), wk =   0.0833333
        k(   17) = (   0.2499642   0.4329508   0.0000000), wk =   0.0833333
        k(   18) = (   0.2499642   0.5291621   0.0000000), wk =   0.1666667
        k(   19) = (   0.3332857   0.5772677   0.0000000), wk =   0.0277778

     Dense  grid:    51311 G-vectors     FFT dimensions: (  27,  27, 162)

     Estimated max dynamical RAM per process >      87.08 MB

     Check: negative core charge=   -0.000001

     Initial potential from superposition of free atoms

     starting charge       7.9999, renormalised to       8.0000

     negative rho (up, down):  5.689E-05 0.000E+00
     Starting wfcs are    8 randomized atomic wfcs

     total cpu time spent up to now is      110.9 secs

     Self-consistent Calculation

     iteration #  1     ecut=    80.00 Ry     beta= 0.70
     Davidson diagonalization with overlap
     c_bands:  1 eigenvalues not converged
     c_bands:  1 eigenvalues not converged
     c_bands:  1 eigenvalues not converged
     c_bands:  2 eigenvalues not converged
     c_bands:  1 eigenvalues not converged
     c_bands:  5 eigenvalues not converged
     c_bands:  4 eigenvalues not converged
     c_bands:  1 eigenvalues not converged
     c_bands:  1 eigenvalues not converged
     c_bands:  2 eigenvalues not converged
     c_bands:  1 eigenvalues not converged
     c_bands:  1 eigenvalues not converged
     c_bands:  2 eigenvalues not converged
     c_bands:  2 eigenvalues not converged
     c_bands:  1 eigenvalues not converged
     c_bands:  4 eigenvalues not converged
     c_bands:  1 eigenvalues not converged
     ethr =  1.00E-06,  avg # of iterations = 50.4

     negative rho (up, down):  8.488E-06 0.000E+00

     total cpu time spent up to now is      129.3 secs

     total energy              =     -23.87797794 Ry
     estimated scf accuracy    <       0.20443102 Ry

     iteration #  2     ecut=    80.00 Ry     beta= 0.70
     Davidson diagonalization with overlap
     ethr =  2.56E-03,  avg # of iterations =  1.1

     negative rho (up, down):  2.015E-06 0.000E+00

     total cpu time spent up to now is      130.3 secs

     total energy              =     -23.89164638 Ry
     estimated scf accuracy    <       0.00492660 Ry

     iteration #  3     ecut=    80.00 Ry     beta= 0.70
     Davidson diagonalization with overlap
     c_bands:  2 eigenvalues not converged
     c_bands:  1 eigenvalues not converged
     c_bands:  1 eigenvalues not converged
     c_bands:  1 eigenvalues not converged
     c_bands:  1 eigenvalues not converged
     c_bands:  1 eigenvalues not converged
     c_bands:  2 eigenvalues not converged
     c_bands:  1 eigenvalues not converged
     ethr =  6.16E-05,  avg # of iterations = 17.1

     negative rho (up, down):  2.153E-06 0.000E+00

     total cpu time spent up to now is      135.6 secs

     total energy              =     -23.91284191 Ry
     estimated scf accuracy    <       0.00765020 Ry

     iteration #  4     ecut=    80.00 Ry     beta= 0.70
     Davidson diagonalization with overlap
     ethr =  6.16E-05,  avg # of iterations =  3.6

     negative rho (up, down):  1.541E-05 0.000E+00

     total cpu time spent up to now is      137.0 secs

     total energy              =     -23.90879433 Ry
     estimated scf accuracy    <       0.00700640 Ry

     iteration #  5     ecut=    80.00 Ry     beta= 0.70
     Davidson diagonalization with overlap
     ethr =  6.16E-05,  avg # of iterations =  2.2

     negative rho (up, down):  5.437E-05 0.000E+00

     total cpu time spent up to now is      138.2 secs

     total energy              =     -23.90960297 Ry
     estimated scf accuracy    <       0.00023171 Ry

     iteration #  6     ecut=    80.00 Ry     beta= 0.70
     Davidson diagonalization with overlap
     c_bands:  1 eigenvalues not converged
     ethr =  2.90E-06,  avg # of iterations = 12.2

     negative rho (up, down):  2.805E-05 0.000E+00

     total cpu time spent up to now is      141.9 secs

     total energy              =     -23.91015374 Ry
     estimated scf accuracy    <       0.00146515 Ry

     iteration #  7     ecut=    80.00 Ry     beta= 0.70
     Davidson diagonalization with overlap
     c_bands:  1 eigenvalues not converged
     ethr =  2.90E-06,  avg # of iterations =  5.1

     negative rho (up, down):  3.153E-05 0.000E+00

     total cpu time spent up to now is      143.4 secs

     total energy              =     -23.91020538 Ry
     estimated scf accuracy    <       0.00015746 Ry

     iteration #  8     ecut=    80.00 Ry     beta= 0.70
     Davidson diagonalization with overlap
     c_bands:  1 eigenvalues not converged
     ethr =  1.97E-06,  avg # of iterations =  4.2

     negative rho (up, down):  2.670E-05 0.000E+00

     total cpu time spent up to now is      145.0 secs

     total energy              =     -23.91022702 Ry
     estimated scf accuracy    <       0.00003242 Ry

     iteration #  9     ecut=    80.00 Ry     beta= 0.70
     Davidson diagonalization with overlap
     ethr =  4.05E-07,  avg # of iterations =  4.3

     negative rho (up, down):  2.670E-05 0.000E+00

     total cpu time spent up to now is      146.6 secs

     total energy              =     -23.91025600 Ry
     estimated scf accuracy    <       0.00000276 Ry

     iteration # 10     ecut=    80.00 Ry     beta= 0.70
     Davidson diagonalization with overlap
     ethr =  3.45E-08,  avg # of iterations =  4.5

     negative rho (up, down):  2.691E-05 0.000E+00

     total cpu time spent up to now is      148.2 secs

     total energy              =     -23.91025792 Ry
     estimated scf accuracy    <       0.00000508 Ry

     iteration # 11     ecut=    80.00 Ry     beta= 0.70
     Davidson diagonalization with overlap
     ethr =  3.45E-08,  avg # of iterations =  1.3

     negative rho (up, down):  2.484E-05 0.000E+00

     total cpu time spent up to now is      149.4 secs

     total energy              =     -23.91025754 Ry
     estimated scf accuracy    <       0.00000309 Ry

     iteration # 12     ecut=    80.00 Ry     beta= 0.70
     Davidson diagonalization with overlap
     ethr =  3.45E-08,  avg # of iterations =  2.0

     negative rho (up, down):  2.379E-05 0.000E+00

     total cpu time spent up to now is      151.0 secs

     total energy              =     -23.91025832 Ry
     estimated scf accuracy    <       0.00000089 Ry

     iteration # 13     ecut=    80.00 Ry     beta= 0.70
     Davidson diagonalization with overlap
     ethr =  1.11E-08,  avg # of iterations =  4.1

     negative rho (up, down):  2.403E-05 0.000E+00

     total cpu time spent up to now is      152.6 secs

     total energy              =     -23.91025947 Ry
     estimated scf accuracy    <       0.00000165 Ry

     iteration # 14     ecut=    80.00 Ry     beta= 0.70
     Davidson diagonalization with overlap
     ethr =  1.11E-08,  avg # of iterations =  1.9

     negative rho (up, down):  2.332E-05 0.000E+00

     total cpu time spent up to now is      153.8 secs

     total energy              =     -23.91025768 Ry
     estimated scf accuracy    <       0.00000298 Ry

     iteration # 15     ecut=    80.00 Ry     beta= 0.70
     Davidson diagonalization with overlap
     ethr =  1.11E-08,  avg # of iterations =  2.2

     negative rho (up, down):  2.254E-05 0.000E+00

     total cpu time spent up to now is      155.0 secs

     total energy              =     -23.91025925 Ry
     estimated scf accuracy    <       0.00000009 Ry

     iteration # 16     ecut=    80.00 Ry     beta= 0.70
     Davidson diagonalization with overlap
     ethr =  1.07E-09,  avg # of iterations =  5.8

     negative rho (up, down):  2.285E-05 0.000E+00

     total cpu time spent up to now is      157.1 secs

     total energy              =     -23.91025911 Ry
     estimated scf accuracy    <       0.00000604 Ry

     iteration # 17     ecut=    80.00 Ry     beta= 0.70
     Davidson diagonalization with overlap
     ethr =  1.07E-09,  avg # of iterations =  4.2

     negative rho (up, down):  2.294E-05 0.000E+00

     total cpu time spent up to now is      158.8 secs

     total energy              =     -23.91025883 Ry
     estimated scf accuracy    <       0.00000262 Ry

     iteration # 18     ecut=    80.00 Ry     beta= 0.70
     Davidson diagonalization with overlap
     ethr =  1.07E-09,  avg # of iterations =  2.0

     negative rho (up, down):  2.302E-05 0.000E+00

     total cpu time spent up to now is      160.0 secs

     total energy              =     -23.91025762 Ry
     estimated scf accuracy    <       0.00000193 Ry

     iteration # 19     ecut=    80.00 Ry     beta= 0.70
     Davidson diagonalization with overlap
     ethr =  1.07E-09,  avg # of iterations =  4.8

     negative rho (up, down):  2.213E-05 0.000E+00

     total cpu time spent up to now is      161.9 secs

     total energy              =     -23.91026002 Ry
     estimated scf accuracy    <       0.00000009 Ry

     iteration # 20     ecut=    80.00 Ry     beta= 0.70
     Davidson diagonalization with overlap
     ethr =  1.07E-09,  avg # of iterations =  5.6

     negative rho (up, down):  2.292E-05 0.000E+00

     total cpu time spent up to now is      164.1 secs

     total energy              =     -23.91025694 Ry
     estimated scf accuracy    <       0.00000747 Ry

     iteration # 21     ecut=    80.00 Ry     beta= 0.70
     Davidson diagonalization with overlap
     ethr =  1.07E-09,  avg # of iterations =  5.4

     negative rho (up, down):  2.294E-05 0.000E+00

     total cpu time spent up to now is      166.0 secs

     total energy              =     -23.91025808 Ry
     estimated scf accuracy    <          5.0E-09 Ry

     iteration # 22     ecut=    80.00 Ry     beta= 0.70
     Davidson diagonalization with overlap
     ethr =  6.22E-11,  avg # of iterations =  2.7

     negative rho (up, down):  2.295E-05 0.000E+00

     total cpu time spent up to now is      167.4 secs

     total energy              =     -23.91025808 Ry
     estimated scf accuracy    <          5.3E-09 Ry

     iteration # 23     ecut=    80.00 Ry     beta= 0.70
     Davidson diagonalization with overlap
     ethr =  6.22E-11,  avg # of iterations =  1.3

     negative rho (up, down):  2.295E-05 0.000E+00

     total cpu time spent up to now is      168.7 secs

     total energy              =     -23.91025809 Ry
     estimated scf accuracy    <          4.2E-09 Ry

     iteration # 24     ecut=    80.00 Ry     beta= 0.70
     Davidson diagonalization with overlap
     ethr =  5.24E-11,  avg # of iterations =  1.2

     negative rho (up, down):  2.296E-05 0.000E+00

     total cpu time spent up to now is      169.8 secs

     total energy              =     -23.91025808 Ry
     estimated scf accuracy    <       0.00000001 Ry

     iteration # 25     ecut=    80.00 Ry     beta= 0.70
     Davidson diagonalization with overlap
     ethr =  5.24E-11,  avg # of iterations =  1.1

     negative rho (up, down):  2.297E-05 0.000E+00

     total cpu time spent up to now is      171.4 secs

     total energy              =     -23.91025808 Ry
     estimated scf accuracy    <          3.9E-09 Ry

     iteration # 26     ecut=    80.00 Ry     beta= 0.70
     Davidson diagonalization with overlap
     ethr =  4.84E-11,  avg # of iterations =  1.7

     negative rho (up, down):  2.297E-05 0.000E+00

     total cpu time spent up to now is      172.7 secs

     total energy              =     -23.91025808 Ry
     estimated scf accuracy    <          2.1E-10 Ry

     iteration # 27     ecut=    80.00 Ry     beta= 0.70
     Davidson diagonalization with overlap
     ethr =  2.63E-12,  avg # of iterations =  5.5

     negative rho (up, down):  2.297E-05 0.000E+00

     total cpu time spent up to now is      174.7 secs

     total energy              =     -23.91025808 Ry
     estimated scf accuracy    <          1.5E-10 Ry

     iteration # 28     ecut=    80.00 Ry     beta= 0.70
     Davidson diagonalization with overlap
     ethr =  1.91E-12,  avg # of iterations =  1.2

     negative rho (up, down):  2.297E-05 0.000E+00

     total cpu time spent up to now is      175.9 secs

     total energy              =     -23.91025808 Ry
     estimated scf accuracy    <          2.9E-10 Ry

     iteration # 29     ecut=    80.00 Ry     beta= 0.70
     Davidson diagonalization with overlap
     ethr =  1.91E-12,  avg # of iterations =  1.1

     negative rho (up, down):  2.297E-05 0.000E+00

     total cpu time spent up to now is      177.0 secs

     total energy              =     -23.91025808 Ry
     estimated scf accuracy    <          2.2E-11 Ry

     iteration # 30     ecut=    80.00 Ry     beta= 0.70
     Davidson diagonalization with overlap
     ethr =  2.72E-13,  avg # of iterations =  4.2

     negative rho (up, down):  2.297E-05 0.000E+00

     total cpu time spent up to now is      178.7 secs

     End of self-consistent calculation

          k = 0.0000 0.0000 0.0000 (  6489 PWs)   bands (ev):

   -21.2451  -9.3484  -4.7907  -4.7907   1.4867   2.3540   2.6936   4.6232

          k =-0.0000 0.0962 0.0000 (  6493 PWs)   bands (ev):

   -21.0813  -9.1522  -5.4394  -5.1289   1.7103   2.5794   2.9205   4.8466

          k =-0.0000 0.1924 0.0000 (  6481 PWs)   bands (ev):

   -20.5914  -8.5690  -7.0733  -5.9210   2.3812   3.2543   3.6013   5.5140

          k =-0.0000 0.2886 0.0000 (  6429 PWs)   bands (ev):

   -19.7813  -9.1684  -7.6178  -6.8005   3.4970   4.3614   4.7349   5.5440

          k =-0.0000 0.3848 0.0000 (  6418 PWs)   bands (ev):

   -18.6630 -11.3694  -7.5338  -6.3492   3.1971   5.0467   5.9679   6.0002

          k =-0.0000 0.4811 0.0000 (  6418 PWs)   bands (ev):

   -17.2674 -13.4685  -8.0067  -4.9259   1.0608   5.7574   7.0619   7.9614

          k = 0.0000-0.5773 0.0000 (  6386 PWs)   bands (ev):

   -16.0016 -14.9767  -8.1690  -4.0810  -0.0376   5.6795   9.3752   9.5214

          k = 0.0833 0.1443 0.0000 (  6477 PWs)   bands (ev):

   -20.7544  -8.7624  -6.4705  -5.8059   2.1578   3.0297   3.3745   5.2925

          k = 0.0833 0.2405 0.0000 (  6446 PWs)   bands (ev):

   -20.1045  -8.1770  -7.9940  -6.8033   3.0519   3.9266   4.2825   6.1678

          k = 0.0833 0.3367 0.0000 (  6420 PWs)   bands (ev):

   -19.1401 -10.2474  -7.6891  -6.8777   4.2093   4.3886   5.2932   5.6421

          k = 0.0833 0.4330 0.0000 (  6429 PWs)   bands (ev):

   -17.8801 -12.3686  -8.3236  -5.4976   2.0084   6.1417   6.6077   7.0584

          k = 0.0833 0.5292 0.0000 (  6418 PWs)   bands (ev):

   -16.4002 -14.3099  -8.6519  -4.1878   0.2388   6.4158   8.3645   9.2218

          k = 0.1666 0.2886 0.0000 (  6421 PWs)   bands (ev):

   -19.3002  -9.5046  -8.1644  -7.0565   4.1678   4.6668   5.0413   5.4177

          k = 0.1666 0.3848 0.0000 (  6445 PWs)   bands (ev):

   -18.1928 -11.2302  -9.2198  -5.8030   2.7179   5.7213   6.5801   7.0039

          k = 0.1666 0.4811 0.0000 (  6433 PWs)   bands (ev):

   -16.8171 -13.1402  -9.7949  -4.3757   0.8046   7.6860   8.3236   8.4669

          k = 0.1666 0.5773 0.0000 (  6420 PWs)   bands (ev):

   -15.5809 -14.5768  -9.9796  -3.4826  -0.2641   8.2203   9.8942   9.9408

          k = 0.2500 0.4330 0.0000 (  6437 PWs)   bands (ev):

   -16.9649 -12.2631 -10.7031  -4.4598   1.1026   7.4759   8.1790   8.8120

          k = 0.2500 0.5292 0.0000 (  6421 PWs)   bands (ev):

   -15.5424 -13.6845 -11.4099  -3.0735  -0.4184   9.1600   9.5789  10.4813

          k = 0.3333 0.5773 0.0000 (  6408 PWs)   bands (ev):

   -14.3249 -14.3249 -12.3081  -1.7170  -1.7170   8.9010  11.1632  11.1632

     the Fermi energy is    -1.6790 ev

!    total energy              =     -23.91025808 Ry
     estimated scf accuracy    <          1.5E-12 Ry
     smearing contrib. (-TS)   =      -0.00018232 Ry
     internal energy E=F+TS    =     -23.91007576 Ry

     The total energy is F=E-TS. E is the sum of the following terms:
     one-electron contribution =    -157.35190777 Ry
     hartree contribution      =      80.13805110 Ry
     xc contribution           =      -8.30258140 Ry
     ewald contribution        =      61.60636231 Ry

     convergence has been achieved in  30 iterations

     negative rho (up, down):  2.297E-05 0.000E+00

     Forces acting on atoms (cartesian axes, Ry/au):

     atom    1 type  1   force =     0.00000000    0.00000000    0.00000000
     atom    2 type  1   force =    -0.00000000    0.00000000    0.00000000

     Total force =     0.000000     Total SCF correction =     0.000000


     Computing stress (Cartesian axis) and pressure


     negative rho (up, down):  2.297E-05 0.000E+00
          total   stress  (Ry/bohr**3)                   (kbar)     P=        0.01
   0.00000016   0.00000000   0.00000000            0.02        0.00        0.00
   0.00000000   0.00000016  -0.00000000            0.00        0.02       -0.00
   0.00000000  -0.00000000  -0.00000020            0.00       -0.00       -0.03


     Writing all to output data dir ../tmp/gr.save/

     init_run     :      3.56s CPU      3.57s WALL (       2 calls)
     electrons    :    154.18s CPU    162.33s WALL (       4 calls)
     update_pot   :      3.02s CPU      3.07s WALL (       2 calls)
     forces       :      3.65s CPU      3.69s WALL (       4 calls)
     stress       :      8.48s CPU      8.48s WALL (       4 calls)

     Called by init_run:
     wfcinit      :      0.88s CPU      0.88s WALL (       2 calls)
     potinit      :      1.02s CPU      1.03s WALL (       2 calls)
     hinit0       :      1.57s CPU      1.57s WALL (       2 calls)

     Called by electrons:
     c_bands      :    130.58s CPU    137.76s WALL (      83 calls)
     sum_band     :     17.51s CPU     17.59s WALL (      83 calls)
     v_of_rho     :      3.17s CPU      3.17s WALL (      84 calls)
     newd         :      1.97s CPU      1.98s WALL (      84 calls)
     mix_rho      :      1.00s CPU      1.00s WALL (      83 calls)

     Called by c_bands:
     init_us_2    :      2.33s CPU      2.46s WALL (    3344 calls)
     init_us_2:cp :      2.32s CPU      2.45s WALL (    3344 calls)
     cegterg      :    126.50s CPU    127.52s WALL (    1606 calls)

     Called by *egterg:
     cdiaghg      :      0.54s CPU      0.54s WALL (    8399 calls)
     h_psi        :    100.43s CPU    101.40s WALL (    8561 calls)
     s_psi        :      4.21s CPU      4.22s WALL (    8561 calls)
     g_psi        :      0.67s CPU      0.67s WALL (    6917 calls)

     Called by h_psi:
     h_psi:calbec :      5.63s CPU      5.64s WALL (    8561 calls)
     vloc_psi     :     89.95s CPU     90.87s WALL (    8561 calls)
     add_vuspsi   :      4.29s CPU      4.30s WALL (    8561 calls)

     General routines
     calbec       :      7.30s CPU      7.34s WALL (   10518 calls)
     fft          :      1.84s CPU      1.84s WALL (    1029 calls)
     ffts         :      0.15s CPU      0.15s WALL (      83 calls)
     fftw         :     92.20s CPU     93.08s WALL (  104872 calls)


     PWSCF        :   2m52.98s CPU   3m 2.71s WALL


   This run was terminated on:   0:34:19  25Aug2023            

=------------------------------------------------------------------------------=
   JOB DONE.
=------------------------------------------------------------------------------=
