
     Program PWSCF v.7.0 starts on 25Aug2023 at  0:42:14 

     This program is part of the open-source Quantum ESPRESSO suite
     for quantum simulation of materials; please cite
         "P. Giannozzi et al., J. Phys.:Condens. Matter 21 395502 (2009);
         "P. Giannozzi et al., J. Phys.:Condens. Matter 29 465901 (2017);
         "P. Giannozzi et al., J. Chem. Phys. 152 154105 (2020);
          URL http://www.quantum-espresso.org", 
     in publications or presentations arising from this work. More details at
     http://www.quantum-espresso.org/quote

     Serial version
     5737 MiB available memory on the printing compute node when the environment starts

     Waiting for input...
     Reading input from standard input

     Current dimensions of program PWSCF are:
     Max number of different atomic species (ntypx) = 10
     Max number of k-points (npk) =  40000
     Max angular momentum in pseudopotentials (lmaxx) =  4

     G-vector sticks info
     --------------------
     sticks:   dense  smooth     PW     G-vecs:    dense   smooth      PW
     Sum         475     475    151                51311    51311    8639

     Using Slab Decomposition



     bravais-lattice index     =            4
     lattice parameter (alat)  =       4.6561  a.u.
     unit-cell volume          =     532.1899 (a.u.)^3
     number of atoms/cell      =            2
     number of atomic types    =            1
     number of electrons       =         8.00
     number of Kohn-Sham states=            8
     kinetic-energy cutoff     =      80.0000  Ry
     charge density cutoff     =     320.0000  Ry
     scf convergence threshold =      1.0E-09
     mixing beta               =       0.7000
     number of iterations used =            8  plain     mixing
     energy convergence thresh.=      1.0E-05
     force convergence thresh. =      1.0E-04
     press convergence thresh. =      5.0E-02
     Exchange-correlation= SLA-PZ-NOGX-NOGC
                           (   1   1   0   0   0   0   0)
     nstep                     =           50


     celldm(1)=   4.656107  celldm(2)=   0.000000  celldm(3)=   6.087896
     celldm(4)=   0.000000  celldm(5)=   0.000000  celldm(6)=   0.000000

     crystal axes: (cart. coord. in units of alat)
               a(1) = (   1.000000   0.000000   0.000000 )  
               a(2) = (  -0.500000   0.866025   0.000000 )  
               a(3) = (   0.000000   0.000000   6.087896 )  

     reciprocal axes: (cart. coord. in units 2 pi/alat)
               b(1) = (  1.000000  0.577350 -0.000000 )  
               b(2) = (  0.000000  1.154701  0.000000 )  
               b(3) = (  0.000000 -0.000000  0.164260 )  


     PseudoPot. # 1 for C  read from file:
     ../pseudo/C.pz-hgh.UPF
     MD5 check sum: 6f4c38613180f901a5a79202410654b3
     Pseudo is Norm-conserving, Zval =  4.0
     Generated in analytical, separable form
     Using radial grid of 1073 points,  1 beta functions with: 
                l(1) =   0

     atomic species   valence    mass     pseudopotential
        C              4.00    12.01070     C ( 1.00)

     24 Sym. Ops., with inversion, found



   Cartesian axes

     site n.     atom                  positions (alat units)
         1           C   tau(   1) = (   0.0000000   0.5773503   3.0439478  )
         2           C   tau(   2) = (   0.5000000   0.2886751   3.0439478  )

     number of k points=    19  Marzari-Vanderbilt smearing, width (Ry)=  0.0200
                       cart. coord. in units 2pi/alat
        k(    1) = (   0.0000000   0.0000000   0.0000000), wk =   0.0138889
        k(    2) = (   0.0000000   0.0962250   0.0000000), wk =   0.0833333
        k(    3) = (   0.0000000   0.1924501   0.0000000), wk =   0.0833333
        k(    4) = (   0.0000000   0.2886751   0.0000000), wk =   0.0833333
        k(    5) = (   0.0000000   0.3849002   0.0000000), wk =   0.0833333
        k(    6) = (   0.0000000   0.4811252   0.0000000), wk =   0.0833333
        k(    7) = (   0.0000000  -0.5773503   0.0000000), wk =   0.0416667
        k(    8) = (   0.0833333   0.1443376   0.0000000), wk =   0.0833333
        k(    9) = (   0.0833333   0.2405626   0.0000000), wk =   0.1666667
        k(   10) = (   0.0833333   0.3367877   0.0000000), wk =   0.1666667
        k(   11) = (   0.0833333   0.4330127   0.0000000), wk =   0.1666667
        k(   12) = (   0.0833333   0.5292377   0.0000000), wk =   0.1666667
        k(   13) = (   0.1666667   0.2886751   0.0000000), wk =   0.0833333
        k(   14) = (   0.1666667   0.3849002   0.0000000), wk =   0.1666667
        k(   15) = (   0.1666667   0.4811252   0.0000000), wk =   0.1666667
        k(   16) = (   0.1666667   0.5773503   0.0000000), wk =   0.0833333
        k(   17) = (   0.2500000   0.4330127   0.0000000), wk =   0.0833333
        k(   18) = (   0.2500000   0.5292377   0.0000000), wk =   0.1666667
        k(   19) = (   0.3333333   0.5773503   0.0000000), wk =   0.0277778

     Dense  grid:    51311 G-vectors     FFT dimensions: (  27,  27, 162)

     Estimated max dynamical RAM per process >      48.52 MB

     Initial potential from superposition of free atoms

     starting charge       7.9999, renormalised to       8.0000

     negative rho (up, down):  1.799E-06 0.000E+00
     Starting wfcs are    8 randomized atomic wfcs

     total cpu time spent up to now is        1.5 secs

     Self-consistent Calculation

     iteration #  1     ecut=    80.00 Ry     beta= 0.70
     Davidson diagonalization with overlap
     ethr =  1.00E-02,  avg # of iterations =  6.2

     total cpu time spent up to now is        3.2 secs

     total energy              =     -22.80200912 Ry
     estimated scf accuracy    <       0.20899925 Ry

     iteration #  2     ecut=    80.00 Ry     beta= 0.70
     Davidson diagonalization with overlap
     ethr =  2.61E-03,  avg # of iterations =  4.2

     total cpu time spent up to now is        4.5 secs

     total energy              =     -22.83470828 Ry
     estimated scf accuracy    <       0.00213450 Ry

     iteration #  3     ecut=    80.00 Ry     beta= 0.70
     Davidson diagonalization with overlap
     ethr =  2.67E-05,  avg # of iterations =  9.2

     total cpu time spent up to now is        6.4 secs

     total energy              =     -22.83509064 Ry
     estimated scf accuracy    <       0.00013553 Ry

     iteration #  4     ecut=    80.00 Ry     beta= 0.70
     Davidson diagonalization with overlap
     ethr =  1.69E-06,  avg # of iterations =  3.9

     total cpu time spent up to now is        7.6 secs

     total energy              =     -22.83510273 Ry
     estimated scf accuracy    <       0.00000219 Ry

     iteration #  5     ecut=    80.00 Ry     beta= 0.70
     Davidson diagonalization with overlap
     ethr =  2.73E-08,  avg # of iterations =  3.4

     total cpu time spent up to now is        8.9 secs

     total energy              =     -22.83510408 Ry
     estimated scf accuracy    <       0.00000005 Ry

     iteration #  6     ecut=    80.00 Ry     beta= 0.70
     Davidson diagonalization with overlap
     ethr =  5.64E-10,  avg # of iterations =  2.7

     total cpu time spent up to now is       10.0 secs

     End of self-consistent calculation

          k = 0.0000 0.0000 0.0000 (  6489 PWs)   bands (ev):

   -21.3477  -9.6598  -5.0627  -5.0627   1.3842   2.4334   2.9110   4.7543

          k = 0.0000 0.0962 0.0000 (  6493 PWs)   bands (ev):

   -21.1840  -9.4629  -5.6972  -5.4020   1.6059   2.6577   3.1384   4.9772

          k = 0.0000 0.1925 0.0000 (  6481 PWs)   bands (ev):

   -20.6947  -8.8777  -7.3009  -6.1947   2.2706   3.3284   3.8205   5.6417

          k = 0.0000 0.2887 0.0000 (  6429 PWs)   bands (ev):

   -19.8853  -9.3666  -7.9224  -7.0729   3.3762   4.4130   4.9561   5.2553

          k = 0.0000 0.3849 0.0000 (  6414 PWs)   bands (ev):

   -18.7690 -11.5455  -7.8058  -6.6481   2.8882   4.9075   5.7774   6.0247

          k = 0.0000 0.4811 0.0000 (  6418 PWs)   bands (ev):

   -17.3713 -13.6343  -8.2783  -5.2146   0.7432   5.5301   6.9061   7.9917

          k = 0.0000-0.5774 0.0000 (  6386 PWs)   bands (ev):

   -16.0601 -15.1817  -8.4408  -4.3580  -0.3654   5.4572   9.2090   9.3025

          k = 0.0833 0.1443 0.0000 (  6473 PWs)   bands (ev):

   -20.8573  -9.0715  -6.7057  -6.0792   2.0493   3.1054   3.5933   5.4216

          k = 0.0833 0.2406 0.0000 (  6444 PWs)   bands (ev):

   -20.2082  -8.3826  -8.3005  -7.0753   2.9356   3.9953   4.5031   6.0572

          k = 0.0833 0.3368 0.0000 (  6420 PWs)   bands (ev):

   -19.2453 -10.4306  -7.9571  -7.1792   3.9075   4.2596   5.3502   5.8640

          k = 0.0833 0.4330 0.0000 (  6423 PWs)   bands (ev):

   -17.9861 -12.5365  -8.5891  -5.7916   1.7005   5.9843   6.3734   7.0952

          k = 0.0833 0.5292 0.0000 (  6418 PWs)   bands (ev):

   -16.4945 -14.4811  -8.9161  -4.4692  -0.0800   6.1772   8.1892   9.1910

          k = 0.1667 0.2887 0.0000 (  6421 PWs)   bands (ev):

   -19.4048  -9.6799  -8.4391  -7.3593   4.0416   4.3669   5.0987   5.6408

          k = 0.1667 0.3849 0.0000 (  6439 PWs)   bands (ev):

   -18.2997 -11.3903  -9.4863  -6.0998   2.4232   5.5790   6.6090   7.2304

          k = 0.1667 0.4811 0.0000 (  6433 PWs)   bands (ev):

   -16.9228 -13.2969 -10.0512  -4.6634   0.5060   7.5160   8.0492   8.3981

          k = 0.1667 0.5774 0.0000 (  6408 PWs)   bands (ev):

   -15.6472 -14.7698 -10.2321  -3.7599  -0.5712   7.9486   9.7468   9.8866

          k = 0.2500 0.4330 0.0000 (  6437 PWs)   bands (ev):

   -17.0725 -12.3891 -10.9839  -4.7498   0.8159   7.3104   8.0771   9.0432

          k = 0.2500 0.5292 0.0000 (  6421 PWs)   bands (ev):

   -15.6408 -13.8187 -11.6798  -3.3553  -0.7052   8.7001   9.3689  10.1650

          k = 0.3333 0.5774 0.0000 (  6408 PWs)   bands (ev):

   -14.4136 -14.4136 -12.6277  -1.9967  -1.9967   8.3762  10.8727  10.8728

     the Fermi energy is    -1.9588 ev

!    total energy              =     -22.83510410 Ry
     estimated scf accuracy    <          3.4E-10 Ry
     smearing contrib. (-TS)   =      -0.00018232 Ry
     internal energy E=F+TS    =     -22.83492178 Ry

     The total energy is F=E-TS. E is the sum of the following terms:
     one-electron contribution =    -157.60656787 Ry
     hartree contribution      =      80.07827298 Ry
     xc contribution           =      -6.93627400 Ry
     ewald contribution        =      61.62964712 Ry

     convergence has been achieved in   6 iterations

     Forces acting on atoms (cartesian axes, Ry/au):

     atom    1 type  1   force =     0.00000000    0.00000000    0.00000000
     atom    2 type  1   force =    -0.00000000   -0.00000000    0.00000000

     Total force =     0.000000     Total SCF correction =     0.000000


     Computing stress (Cartesian axis) and pressure

          total   stress  (Ry/bohr**3)                   (kbar)     P=      -30.47
  -0.00025478   0.00000000   0.00000000          -37.48        0.00        0.00
   0.00000000  -0.00025478  -0.00000000            0.00      -37.48       -0.00
   0.00000000  -0.00000000  -0.00011176            0.00       -0.00      -16.44


     BFGS Geometry Optimization
     Energy error            =      0.0E+00 Ry
     Gradient error          =      6.9E-26 Ry/Bohr
     Cell gradient error     =      3.7E+01 kbar

     number of scf cycles    =   1
     number of bfgs steps    =   0

     enthalpy           new  =     -22.8351041024 Ry

     new trust radius        =       0.0293875430 bohr
     new conv_thr            =       0.0000000010 Ry

     new unit-cell volume =    525.43199 a.u.^3 (    77.86099 Ang^3 )
     density =      0.51230 g/cm^3

CELL_PARAMETERS (alat=  4.65610675)
   0.993630579   0.000000000   0.000000000
  -0.496815289   0.860509323   0.000000000
   0.000000000   0.000000000   6.087895618

ATOMIC_POSITIONS (crystal)
C             0.3333333330        0.6666666660        0.5000000000
C             0.6666666660        0.3333333330        0.5000000000



     Writing config-only to output data dir ../tmp/gr.save/
     NEW-OLD atomic charge density approx. for the potential
     extrapolated charge    7.89711, renormalised to    8.00000

     total cpu time spent up to now is       12.5 secs

     Self-consistent Calculation

     iteration #  1     ecut=    80.00 Ry     beta= 0.70
     Davidson diagonalization with overlap
     c_bands:  1 eigenvalues not converged
     c_bands:  1 eigenvalues not converged
     ethr =  1.00E-06,  avg # of iterations = 11.9

     total cpu time spent up to now is       15.0 secs

     total energy              =     -22.83199457 Ry
     estimated scf accuracy    <       0.00237354 Ry

     iteration #  2     ecut=    80.00 Ry     beta= 0.70
     Davidson diagonalization with overlap
     ethr =  2.97E-05,  avg # of iterations =  7.6

     total cpu time spent up to now is       16.9 secs

     total energy              =     -22.83653703 Ry
     estimated scf accuracy    <       0.00229170 Ry

     iteration #  3     ecut=    80.00 Ry     beta= 0.70
     Davidson diagonalization with overlap
     ethr =  2.86E-05,  avg # of iterations =  1.3

     total cpu time spent up to now is       17.8 secs

     total energy              =     -22.83640721 Ry
     estimated scf accuracy    <       0.00050062 Ry

     iteration #  4     ecut=    80.00 Ry     beta= 0.70
     Davidson diagonalization with overlap
     ethr =  6.26E-06,  avg # of iterations =  2.4

     total cpu time spent up to now is       18.9 secs

     total energy              =     -22.83644266 Ry
     estimated scf accuracy    <       0.00006867 Ry

     iteration #  5     ecut=    80.00 Ry     beta= 0.70
     Davidson diagonalization with overlap
     ethr =  8.58E-07,  avg # of iterations =  2.3

     total cpu time spent up to now is       19.9 secs

     total energy              =     -22.83641686 Ry
     estimated scf accuracy    <       0.00006103 Ry

     iteration #  6     ecut=    80.00 Ry     beta= 0.70
     Davidson diagonalization with overlap
     ethr =  7.63E-07,  avg # of iterations =  1.6

     total cpu time spent up to now is       20.9 secs

     total energy              =     -22.83641343 Ry
     estimated scf accuracy    <       0.00001133 Ry

     iteration #  7     ecut=    80.00 Ry     beta= 0.70
     Davidson diagonalization with overlap
     ethr =  1.42E-07,  avg # of iterations =  2.3

     total cpu time spent up to now is       21.9 secs

     total energy              =     -22.83641556 Ry
     estimated scf accuracy    <       0.00000006 Ry

     iteration #  8     ecut=    80.00 Ry     beta= 0.70
     Davidson diagonalization with overlap
     ethr =  7.28E-10,  avg # of iterations =  3.2

     total cpu time spent up to now is       23.1 secs

     total energy              =     -22.83641561 Ry
     estimated scf accuracy    <          3.3E-09 Ry

     iteration #  9     ecut=    80.00 Ry     beta= 0.70
     Davidson diagonalization with overlap
     ethr =  4.08E-11,  avg # of iterations =  2.2

     total cpu time spent up to now is       24.3 secs

     total energy              =     -22.83641560 Ry
     estimated scf accuracy    <          9.0E-09 Ry

     iteration # 10     ecut=    80.00 Ry     beta= 0.70
     Davidson diagonalization with overlap
     ethr =  4.08E-11,  avg # of iterations =  2.0

     total cpu time spent up to now is       25.4 secs

     End of self-consistent calculation

          k = 0.0000 0.0000 0.0000 (  6489 PWs)   bands (ev):

   -21.4274  -9.7152  -4.9835  -4.9835   1.4001   2.4535   2.9306   4.7733

          k = 0.0000 0.0968 0.0000 (  6493 PWs)   bands (ev):

   -21.2618  -9.5152  -5.6227  -5.3296   1.6245   2.6808   3.1609   4.9992

          k = 0.0000 0.1937 0.0000 (  6481 PWs)   bands (ev):

   -20.7670  -8.9208  -7.2402  -6.1372   2.2977   3.3605   3.8518   5.6733

          k = 0.0000 0.2905 0.0000 (  6429 PWs)   bands (ev):

   -19.9486  -9.3261  -7.9503  -7.0310   3.4173   4.4644   5.0022   5.4511

          k = 0.0000 0.3874 0.0000 (  6414 PWs)   bands (ev):

   -18.8192 -11.5281  -7.7763  -6.6548   3.0381   4.9704   6.0288   6.0951

          k = 0.0000 0.4842 0.0000 (  6418 PWs)   bands (ev):

   -17.4031 -13.6423  -8.2566  -5.1956   0.8494   5.7905   6.9962   8.0898

          k = 0.0000-0.5811 0.0000 (  6386 PWs)   bands (ev):

   -16.0519 -15.2322  -8.4218  -4.3214  -0.2832   5.7223   9.3297   9.4212

          k = 0.0839 0.1453 0.0000 (  6473 PWs)   bands (ev):

   -20.9315  -9.1177  -6.6381  -6.0198   2.0736   3.1345   3.6216   5.4499

          k = 0.0839 0.2421 0.0000 (  6444 PWs)   bands (ev):

   -20.2751  -8.3344  -8.3299  -7.0328   2.9711   4.0366   4.5432   6.2490

          k = 0.0839 0.3389 0.0000 (  6420 PWs)   bands (ev):

   -19.3012 -10.3995  -7.9278  -7.1949   4.0801   4.3122   5.4127   5.9227

          k = 0.0839 0.4358 0.0000 (  6423 PWs)   bands (ev):

   -18.0267 -12.5295  -8.5690  -5.7836   1.8291   6.0699   6.6280   7.1805

          k = 0.0839 0.5326 0.0000 (  6418 PWs)   bands (ev):

   -16.5104 -14.5036  -8.9006  -4.4359   0.0113   6.4465   8.2948   9.3104

          k = 0.1677 0.2905 0.0000 (  6421 PWs)   bands (ev):

   -19.4626  -9.6331  -8.4207  -7.3781   4.0915   4.5552   5.1552   5.6956

          k = 0.1677 0.3874 0.0000 (  6439 PWs)   bands (ev):

   -18.3444 -11.3628  -9.4799  -6.0976   2.5725   5.6489   6.6875   7.3060

          k = 0.1677 0.4842 0.0000 (  6433 PWs)   bands (ev):

   -16.9492 -13.2963 -10.0486  -4.6355   0.6168   7.6154   8.3269   8.5067

          k = 0.1677 0.5811 0.0000 (  6408 PWs)   bands (ev):

   -15.6368 -14.8090 -10.2309  -3.7139  -0.4834   8.2330   9.6410   9.8793

          k = 0.2516 0.4358 0.0000 (  6437 PWs)   bands (ev):

   -17.1018 -12.3598 -11.0074  -4.7242   0.9377   7.4037   8.1806   9.1432

          k = 0.2516 0.5326 0.0000 (  6421 PWs)   bands (ev):

   -15.6466 -13.8157 -11.7074  -3.3042  -0.6111   8.8143   9.4961  10.4532

          k = 0.3355 0.5811 0.0000 (  6408 PWs)   bands (ev):

   -14.3963 -14.3963 -12.6953  -1.9223  -1.9223   8.4797  11.0793  11.0793

     the Fermi energy is    -1.8844 ev

!    total energy              =     -22.83641560 Ry
     estimated scf accuracy    <          9.4E-10 Ry
     smearing contrib. (-TS)   =      -0.00018232 Ry
     internal energy E=F+TS    =     -22.83623328 Ry

     The total energy is F=E-TS. E is the sum of the following terms:
     one-electron contribution =    -159.68644224 Ry
     hartree contribution      =      81.13672724 Ry
     xc contribution           =      -6.96401512 Ry
     ewald contribution        =      62.67749683 Ry

     convergence has been achieved in  10 iterations

     Forces acting on atoms (cartesian axes, Ry/au):

     atom    1 type  1   force =     0.00000000    0.00000000    0.00000000
     atom    2 type  1   force =    -0.00000000    0.00000000    0.00000000

     Total force =     0.000000     Total SCF correction =     0.000000


     Computing stress (Cartesian axis) and pressure

          total   stress  (Ry/bohr**3)                   (kbar)     P=      -18.53
  -0.00013302   0.00000000   0.00000000          -19.57        0.00        0.00
   0.00000000  -0.00013302   0.00000000            0.00      -19.57        0.00
   0.00000000  -0.00000000  -0.00011181            0.00       -0.00      -16.45

     Energy error            =      1.3E-03 Ry
     Gradient error          =      6.9E-26 Ry/Bohr
     Cell gradient error     =      2.0E+01 kbar

     number of scf cycles    =   2
     number of bfgs steps    =   1

     enthalpy           old  =     -22.8351041024 Ry
     enthalpy           new  =     -22.8364156049 Ry

     CASE: enthalpy          _new < enthalpy          _old

     new trust radius        =       0.0316798725 bohr
     new conv_thr            =            1.0E-11 Ry

     new unit-cell volume =    518.19533 a.u.^3 (    76.78862 Ang^3 )
     density =      0.51946 g/cm^3

CELL_PARAMETERS (alat=  4.65610675)
   0.986764321   0.000000000   0.000000000
  -0.493382160   0.854562969   0.000000000
   0.000000000   0.000000000   6.087895618

ATOMIC_POSITIONS (crystal)
C             0.3333333330        0.6666666660        0.5000000000
C             0.6666666660        0.3333333330        0.5000000000



     Writing config-only to output data dir ../tmp/gr.save/
     NEW-OLD atomic charge density approx. for the potential
     extrapolated charge    7.88828, renormalised to    8.00000

     total cpu time spent up to now is       28.0 secs

     Self-consistent Calculation

     iteration #  1     ecut=    80.00 Ry     beta= 0.70
     Davidson diagonalization with overlap
     c_bands:  1 eigenvalues not converged
     ethr =  1.00E-06,  avg # of iterations = 11.7

     total cpu time spent up to now is       30.6 secs

     total energy              =     -22.83164768 Ry
     estimated scf accuracy    <       0.00279431 Ry

     iteration #  2     ecut=    80.00 Ry     beta= 0.70
     Davidson diagonalization with overlap
     ethr =  3.49E-05,  avg # of iterations =  7.7

     total cpu time spent up to now is       32.5 secs

     total energy              =     -22.83701753 Ry
     estimated scf accuracy    <       0.00271596 Ry

     iteration #  3     ecut=    80.00 Ry     beta= 0.70
     Davidson diagonalization with overlap
     ethr =  3.39E-05,  avg # of iterations =  1.0

     total cpu time spent up to now is       33.4 secs

     total energy              =     -22.83685654 Ry
     estimated scf accuracy    <       0.00059366 Ry

     iteration #  4     ecut=    80.00 Ry     beta= 0.70
     Davidson diagonalization with overlap
     ethr =  7.42E-06,  avg # of iterations =  3.0

     total cpu time spent up to now is       34.4 secs

     total energy              =     -22.83690245 Ry
     estimated scf accuracy    <       0.00007315 Ry

     iteration #  5     ecut=    80.00 Ry     beta= 0.70
     Davidson diagonalization with overlap
     ethr =  9.14E-07,  avg # of iterations =  1.9

     total cpu time spent up to now is       35.4 secs

     total energy              =     -22.83687591 Ry
     estimated scf accuracy    <       0.00006691 Ry

     iteration #  6     ecut=    80.00 Ry     beta= 0.70
     Davidson diagonalization with overlap
     ethr =  8.36E-07,  avg # of iterations =  1.3

     total cpu time spent up to now is       36.3 secs

     total energy              =     -22.83687014 Ry
     estimated scf accuracy    <       0.00001478 Ry

     iteration #  7     ecut=    80.00 Ry     beta= 0.70
     Davidson diagonalization with overlap
     ethr =  1.85E-07,  avg # of iterations =  2.2

     total cpu time spent up to now is       37.4 secs

     total energy              =     -22.83687290 Ry
     estimated scf accuracy    <       0.00000007 Ry

     iteration #  8     ecut=    80.00 Ry     beta= 0.70
     Davidson diagonalization with overlap
     ethr =  9.08E-10,  avg # of iterations =  3.5

     total cpu time spent up to now is       38.6 secs

     total energy              =     -22.83687296 Ry
     estimated scf accuracy    <          2.2E-09 Ry

     iteration #  9     ecut=    80.00 Ry     beta= 0.70
     Davidson diagonalization with overlap
     ethr =  2.78E-11,  avg # of iterations =  2.4

     total cpu time spent up to now is       39.7 secs

     total energy              =     -22.83687296 Ry
     estimated scf accuracy    <          1.0E-08 Ry

     iteration # 10     ecut=    80.00 Ry     beta= 0.70
     Davidson diagonalization with overlap
     ethr =  2.78E-11,  avg # of iterations =  2.0

     total cpu time spent up to now is       40.8 secs

     total energy              =     -22.83687296 Ry
     estimated scf accuracy    <          1.6E-09 Ry

     iteration # 11     ecut=    80.00 Ry     beta= 0.70
     Davidson diagonalization with overlap
     ethr =  2.01E-11,  avg # of iterations =  2.0

     total cpu time spent up to now is       41.8 secs

     total energy              =     -22.83687296 Ry
     estimated scf accuracy    <          5.6E-11 Ry

     iteration # 12     ecut=    80.00 Ry     beta= 0.70
     Davidson diagonalization with overlap
     ethr =  6.95E-13,  avg # of iterations =  1.3

     total cpu time spent up to now is       42.7 secs

     End of self-consistent calculation

          k = 0.0000 0.0000 0.0000 (  6489 PWs)   bands (ev):

   -21.5132  -9.7757  -4.8945  -4.8945   1.4174   2.4751   2.9515   4.7937

          k = 0.0000 0.0975 0.0000 (  6493 PWs)   bands (ev):

   -21.3456  -9.5723  -5.5391  -5.2481   1.6448   2.7057   3.1850   5.0229

          k = 0.0000 0.1950 0.0000 (  6481 PWs)   bands (ev):

   -20.8449  -8.9679  -7.1720  -6.0722   2.3272   3.3954   3.8856   5.7071

          k = 0.0000 0.2925 0.0000 (  6429 PWs)   bands (ev):

   -20.0166  -9.2802  -7.9805  -6.9833   3.4624   4.5191   5.0523   5.6672

          k = 0.0000 0.3901 0.0000 (  6414 PWs)   bands (ev):

   -18.8730 -11.5076  -7.7423  -6.6618   3.2031   5.0388   6.1722   6.3026

          k = 0.0000 0.4876 0.0000 (  6418 PWs)   bands (ev):

   -17.4370 -13.6491  -8.2311  -5.1743   0.9663   6.0759   7.0963   8.1971

          k = 0.0000-0.5851 0.0000 (  6386 PWs)   bands (ev):

   -16.0408 -15.2868  -8.3992  -4.2805  -0.1929   6.0142   9.4623   9.5515

          k = 0.0845 0.1463 0.0000 (  6473 PWs)   bands (ev):

   -21.0114  -9.1681  -6.5623  -5.9527   2.1000   3.1660   3.6521   5.4803

          k = 0.0845 0.2438 0.0000 (  6444 PWs)   bands (ev):

   -20.3471  -8.3714  -8.2705  -6.9843   3.0100   4.0815   4.5867   6.3626

          k = 0.0845 0.3413 0.0000 (  6420 PWs)   bands (ev):

   -19.3612 -10.3640  -7.8937  -7.2118   4.2696   4.3699   5.4816   5.9862

          k = 0.0845 0.4388 0.0000 (  6423 PWs)   bands (ev):

   -18.0701 -12.5203  -8.5450  -5.7744   1.9706   6.1583   6.9131   7.2740

          k = 0.0845 0.5363 0.0000 (  6418 PWs)   bands (ev):

   -16.5272 -14.5263  -8.8818  -4.3988   0.1117   6.7427   8.4109   9.4410

          k = 0.1689 0.2925 0.0000 (  6421 PWs)   bands (ev):

   -19.5246  -9.5802  -8.3987  -7.3983   4.1461   4.7627   5.2167   5.7553

          k = 0.1689 0.3901 0.0000 (  6439 PWs)   bands (ev):

   -18.3922 -11.3315  -9.4708  -6.0946   2.7371   5.7257   6.7733   7.3887

          k = 0.1689 0.4876 0.0000 (  6433 PWs)   bands (ev):

   -16.9771 -13.2942 -10.0436  -4.6044   0.7388   7.7231   8.6258   8.6329

          k = 0.1689 0.5851 0.0000 (  6408 PWs)   bands (ev):

   -15.6233 -14.8517 -10.2273  -3.6627  -0.3867   8.5453   9.7913  10.0245

          k = 0.2534 0.4388 0.0000 (  6437 PWs)   bands (ev):

   -17.1328 -12.3260 -11.0313  -4.6956   1.0723   7.5061   8.2942   9.2522

          k = 0.2534 0.5363 0.0000 (  6421 PWs)   bands (ev):

   -15.6522 -13.8115 -11.7348  -3.2475  -0.5073   8.9402   9.6347  10.7677

          k = 0.3378 0.5851 0.0000 (  6408 PWs)   bands (ev):

   -14.3755 -14.3755 -12.7685  -1.8401  -1.8401   8.5938  11.3001  11.3001

     the Fermi energy is    -1.8022 ev

!    total energy              =     -22.83687296 Ry
     estimated scf accuracy    <          9.2E-12 Ry
     smearing contrib. (-TS)   =      -0.00018232 Ry
     internal energy E=F+TS    =     -22.83669064 Ry

     The total energy is F=E-TS. E is the sum of the following terms:
     one-electron contribution =    -161.97593529 Ry
     hartree contribution      =      82.30187128 Ry
     xc contribution           =      -6.99436509 Ry
     ewald contribution        =      63.83173846 Ry

     convergence has been achieved in  12 iterations

     Forces acting on atoms (cartesian axes, Ry/au):

     atom    1 type  1   force =    -0.00000000   -0.00000000    0.00000000
     atom    2 type  1   force =     0.00000000    0.00000000    0.00000000

     Total force =     0.000000     Total SCF correction =     0.000000


     Computing stress (Cartesian axis) and pressure

          total   stress  (Ry/bohr**3)                   (kbar)     P=       -4.85
   0.00000669   0.00000000   0.00000000            0.98        0.00        0.00
   0.00000000   0.00000669   0.00000000            0.00        0.98        0.00
   0.00000000   0.00000000  -0.00011222            0.00        0.00      -16.51

     Energy error            =      4.6E-04 Ry
     Gradient error          =      7.0E-26 Ry/Bohr
     Cell gradient error     =      9.8E-01 kbar

     number of scf cycles    =   3
     number of bfgs steps    =   2

     enthalpy           old  =     -22.8364156049 Ry
     enthalpy           new  =     -22.8368729626 Ry

     CASE: enthalpy          _new < enthalpy          _old

     new trust radius        =       0.0015068944 bohr
     new conv_thr            =            1.0E-11 Ry

     new unit-cell volume =    518.53841 a.u.^3 (    76.83946 Ang^3 )
     density =      0.51911 g/cm^3

CELL_PARAMETERS (alat=  4.65610675)
   0.987090923   0.000000000   0.000000000
  -0.493545462   0.854845815   0.000000000
   0.000000000   0.000000000   6.087895618

ATOMIC_POSITIONS (crystal)
C             0.3333333330        0.6666666660        0.5000000000
C             0.6666666660        0.3333333330        0.5000000000



     Writing config-only to output data dir ../tmp/gr.save/
     NEW-OLD atomic charge density approx. for the potential
     extrapolated charge    8.00529, renormalised to    8.00000

     total cpu time spent up to now is       45.3 secs

     Self-consistent Calculation

     iteration #  1     ecut=    80.00 Ry     beta= 0.70
     Davidson diagonalization with overlap
     ethr =  1.00E-06,  avg # of iterations =  3.6

     Threshold (ethr) on eigenvalues was too large:
     Diagonalizing with lowered threshold

     Davidson diagonalization with overlap
     ethr =  8.54E-08,  avg # of iterations =  1.0

     total cpu time spent up to now is       47.4 secs

     total energy              =     -22.83686245 Ry
     estimated scf accuracy    <       0.00000705 Ry

     iteration #  2     ecut=    80.00 Ry     beta= 0.70
     Davidson diagonalization with overlap
     ethr =  8.82E-08,  avg # of iterations =  3.1

     total cpu time spent up to now is       48.8 secs

     total energy              =     -22.83687448 Ry
     estimated scf accuracy    <       0.00000683 Ry

     iteration #  3     ecut=    80.00 Ry     beta= 0.70
     Davidson diagonalization with overlap
     ethr =  8.54E-08,  avg # of iterations =  1.0

     total cpu time spent up to now is       49.7 secs

     total energy              =     -22.83687409 Ry
     estimated scf accuracy    <       0.00000153 Ry

     iteration #  4     ecut=    80.00 Ry     beta= 0.70
     Davidson diagonalization with overlap
     ethr =  1.92E-08,  avg # of iterations =  1.6

     total cpu time spent up to now is       50.6 secs

     total energy              =     -22.83687420 Ry
     estimated scf accuracy    <       0.00000025 Ry

     iteration #  5     ecut=    80.00 Ry     beta= 0.70
     Davidson diagonalization with overlap
     ethr =  3.17E-09,  avg # of iterations =  1.0

     total cpu time spent up to now is       51.5 secs

     total energy              =     -22.83687406 Ry
     estimated scf accuracy    <       0.00000026 Ry

     iteration #  6     ecut=    80.00 Ry     beta= 0.70
     Davidson diagonalization with overlap
     ethr =  3.17E-09,  avg # of iterations =  2.0

     total cpu time spent up to now is       52.5 secs

     total energy              =     -22.83687408 Ry
     estimated scf accuracy    <       0.00000002 Ry

     iteration #  7     ecut=    80.00 Ry     beta= 0.70
     Davidson diagonalization with overlap
     ethr =  2.63E-10,  avg # of iterations =  2.0

     total cpu time spent up to now is       53.6 secs

     total energy              =     -22.83687408 Ry
     estimated scf accuracy    <          4.0E-10 Ry

     iteration #  8     ecut=    80.00 Ry     beta= 0.70
     Davidson diagonalization with overlap
     ethr =  4.96E-12,  avg # of iterations =  2.0

     total cpu time spent up to now is       54.7 secs

     total energy              =     -22.83687408 Ry
     estimated scf accuracy    <          9.6E-10 Ry

     iteration #  9     ecut=    80.00 Ry     beta= 0.70
     Davidson diagonalization with overlap
     ethr =  4.96E-12,  avg # of iterations =  2.0

     total cpu time spent up to now is       55.8 secs

     total energy              =     -22.83687408 Ry
     estimated scf accuracy    <          1.7E-10 Ry

     iteration # 10     ecut=    80.00 Ry     beta= 0.70
     Davidson diagonalization with overlap
     ethr =  2.17E-12,  avg # of iterations =  2.0

     total cpu time spent up to now is       56.8 secs

     End of self-consistent calculation

          k = 0.0000 0.0000 0.0000 (  6489 PWs)   bands (ev):

   -21.5091  -9.7728  -4.8988  -4.8988   1.4166   2.4740   2.9505   4.7927

          k =-0.0000 0.0975 0.0000 (  6493 PWs)   bands (ev):

   -21.3417  -9.5696  -5.5431  -5.2520   1.6438   2.7045   3.1838   5.0218

          k =-0.0000 0.1950 0.0000 (  6481 PWs)   bands (ev):

   -20.8412  -8.9656  -7.1753  -6.0754   2.3258   3.3937   3.8839   5.7054

          k =-0.0000 0.2925 0.0000 (  6429 PWs)   bands (ev):

   -20.0134  -9.2824  -7.9791  -6.9856   3.4602   4.5165   5.0498   5.6568

          k =-0.0000 0.3899 0.0000 (  6414 PWs)   bands (ev):

   -18.8705 -11.5086  -7.7440  -6.6615   3.1951   5.0356   6.1685   6.2896

          k =-0.0000 0.4874 0.0000 (  6418 PWs)   bands (ev):

   -17.4354 -13.6488  -8.2324  -5.1754   0.9607   6.0622   7.0915   8.1920

          k = 0.0000-0.5849 0.0000 (  6386 PWs)   bands (ev):

   -16.0414 -15.2842  -8.4003  -4.2825  -0.1973   6.0002   9.4560   9.5452

          k = 0.0844 0.1462 0.0000 (  6473 PWs)   bands (ev):

   -21.0076  -9.1656  -6.5660  -5.9560   2.0987   3.1645   3.6507   5.4788

          k = 0.0844 0.2437 0.0000 (  6444 PWs)   bands (ev):

   -20.3437  -8.3696  -8.2734  -6.9867   3.0082   4.0793   4.5846   6.3622

          k = 0.0844 0.3412 0.0000 (  6420 PWs)   bands (ev):

   -19.3583 -10.3658  -7.8954  -7.2110   4.2605   4.3672   5.4782   5.9831

          k = 0.0844 0.4387 0.0000 (  6423 PWs)   bands (ev):

   -18.0680 -12.5208  -8.5462  -5.7748   1.9638   6.1541   6.8993   7.2695

          k = 0.0844 0.5362 0.0000 (  6418 PWs)   bands (ev):

   -16.5264 -14.5253  -8.8828  -4.4006   0.1069   6.7285   8.4053   9.4348

          k = 0.1688 0.2925 0.0000 (  6421 PWs)   bands (ev):

   -19.5217  -9.5828  -8.3998  -7.3973   4.1435   4.7527   5.2138   5.7524

          k = 0.1688 0.3899 0.0000 (  6439 PWs)   bands (ev):

   -18.3900 -11.3330  -9.4713  -6.0948   2.7292   5.7220   6.7692   7.3847

          k = 0.1688 0.4874 0.0000 (  6433 PWs)   bands (ev):

   -16.9758 -13.2943 -10.0439  -4.6059   0.7330   7.7179   8.6182   8.6200

          k = 0.1688 0.5849 0.0000 (  6408 PWs)   bands (ev):

   -15.6240 -14.8496 -10.2275  -3.6652  -0.3914   8.5303   9.7841  10.0175

          k = 0.2533 0.4387 0.0000 (  6437 PWs)   bands (ev):

   -17.1313 -12.3277 -11.0302  -4.6970   1.0658   7.5011   8.2887   9.2470

          k = 0.2533 0.5362 0.0000 (  6421 PWs)   bands (ev):

   -15.6519 -13.8117 -11.7336  -3.2503  -0.5123   8.9341   9.6281  10.7527

          k = 0.3377 0.5849 0.0000 (  6408 PWs)   bands (ev):

   -14.3766 -14.3766 -12.7650  -1.8440  -1.8440   8.5883  11.2896  11.2896

     the Fermi energy is    -1.8061 ev

!    total energy              =     -22.83687408 Ry
     estimated scf accuracy    <          5.2E-12 Ry
     smearing contrib. (-TS)   =      -0.00018232 Ry
     internal energy E=F+TS    =     -22.83669176 Ry

     The total energy is F=E-TS. E is the sum of the following terms:
     one-electron contribution =    -161.86589445 Ry
     hartree contribution      =      82.24586687 Ry
     xc contribution           =      -6.99290967 Ry
     ewald contribution        =      63.77624549 Ry

     convergence has been achieved in  10 iterations

     Forces acting on atoms (cartesian axes, Ry/au):

     atom    1 type  1   force =     0.00000000    0.00000000    0.00000000
     atom    2 type  1   force =     0.00000000    0.00000000    0.00000000

     Total force =     0.000000     Total SCF correction =     0.000000


     Computing stress (Cartesian axis) and pressure

          total   stress  (Ry/bohr**3)                   (kbar)     P=       -5.52
  -0.00000016  -0.00000000  -0.00000000           -0.02       -0.00       -0.00
  -0.00000000  -0.00000016  -0.00000000           -0.00       -0.02       -0.00
   0.00000000   0.00000000  -0.00011220            0.00        0.00      -16.51

     Energy error            =      1.1E-06 Ry
     Gradient error          =      0.0E+00 Ry/Bohr
     Cell gradient error     =      2.4E-02 kbar

     bfgs converged in   4 scf cycles and   3 bfgs steps
     (criteria: energy <  1.0E-05 Ry, force <  1.0E-04Ry/Bohr, cell <  5.0E-02kbar)

     End of BFGS Geometry Optimization

     Final enthalpy           =     -22.8368740807 Ry

     File ../tmp/gr.bfgs deleted, as requested
Begin final coordinates
     new unit-cell volume =    518.53841 a.u.^3 (    76.83946 Ang^3 )
     density =      0.51911 g/cm^3

CELL_PARAMETERS (alat=  4.65610675)
   0.987090923   0.000000000   0.000000000
  -0.493545462   0.854845815   0.000000000
   0.000000000   0.000000000   6.087895618

ATOMIC_POSITIONS (crystal)
C             0.3333333330        0.6666666660        0.5000000000
C             0.6666666660        0.3333333330        0.5000000000
End final coordinates



     Writing config-only to output data dir ../tmp/gr.save/

     Final scf calculation at the relaxed structure.
     The G-vectors are recalculated for the final unit cell
     Results may differ from those at the preceding step.

     G-vector sticks info
     --------------------
     sticks:   dense  smooth     PW     G-vecs:    dense   smooth      PW
     Sum         463     463    139                50027    50027    8351

     Using Slab Decomposition



     bravais-lattice index     =            4
     lattice parameter (alat)  =       4.6561  a.u.
     unit-cell volume          =     518.5384 (a.u.)^3
     number of atoms/cell      =            2
     number of atomic types    =            1
     number of electrons       =         8.00
     number of Kohn-Sham states=            8
     kinetic-energy cutoff     =      80.0000  Ry
     charge density cutoff     =     320.0000  Ry
     scf convergence threshold =      1.0E-11
     mixing beta               =       0.7000
     number of iterations used =            8  plain     mixing
     press convergence thresh. =      5.0E-02
     Exchange-correlation= SLA-PZ-NOGX-NOGC
                           (   1   1   0   0   0   0   0)

     celldm(1)=   4.656107  celldm(2)=   0.000000  celldm(3)=   6.087896
     celldm(4)=   0.000000  celldm(5)=   0.000000  celldm(6)=   0.000000

     crystal axes: (cart. coord. in units of alat)
               a(1) = (   0.987091   0.000000   0.000000 )  
               a(2) = (  -0.493545   0.854846   0.000000 )  
               a(3) = (   0.000000   0.000000   6.087896 )  

     reciprocal axes: (cart. coord. in units 2 pi/alat)
               b(1) = (  1.013078  0.584901 -0.000000 )  
               b(2) = ( -0.000000  1.169802  0.000000 )  
               b(3) = (  0.000000 -0.000000  0.164260 )  


     PseudoPot. # 1 for C  read from file:
     ../pseudo/C.pz-hgh.UPF
     MD5 check sum: 6f4c38613180f901a5a79202410654b3
     Pseudo is Norm-conserving, Zval =  4.0
     Generated in analytical, separable form
     Using radial grid of 1073 points,  1 beta functions with: 
                l(1) =   0

     atomic species   valence    mass     pseudopotential
        C              4.00    12.01070     C ( 1.00)

     24 Sym. Ops., with inversion, found



   Cartesian axes

     site n.     atom                  positions (alat units)
         1           C   tau(   1) = (   0.0000000   0.5698972   3.0439478  )
         2           C   tau(   2) = (   0.4935455   0.2849486   3.0439478  )

     number of k points=    19  Marzari-Vanderbilt smearing, width (Ry)=  0.0200
                       cart. coord. in units 2pi/alat
        k(    1) = (   0.0000000   0.0000000   0.0000000), wk =   0.0138889
        k(    2) = (  -0.0000000   0.0974835   0.0000000), wk =   0.0833333
        k(    3) = (  -0.0000000   0.1949669   0.0000000), wk =   0.0833333
        k(    4) = (  -0.0000000   0.2924504   0.0000000), wk =   0.0833333
        k(    5) = (  -0.0000000   0.3899339   0.0000000), wk =   0.0833333
        k(    6) = (  -0.0000000   0.4874173   0.0000000), wk =   0.0833333
        k(    7) = (   0.0000000  -0.5849008   0.0000000), wk =   0.0416667
        k(    8) = (   0.0844232   0.1462252   0.0000000), wk =   0.0833333
        k(    9) = (   0.0844232   0.2437087   0.0000000), wk =   0.1666667
        k(   10) = (   0.0844232   0.3411921   0.0000000), wk =   0.1666667
        k(   11) = (   0.0844232   0.4386756   0.0000000), wk =   0.1666667
        k(   12) = (   0.0844232   0.5361591   0.0000000), wk =   0.1666667
        k(   13) = (   0.1688463   0.2924504   0.0000000), wk =   0.0833333
        k(   14) = (   0.1688463   0.3899339   0.0000000), wk =   0.1666667
        k(   15) = (   0.1688463   0.4874173   0.0000000), wk =   0.1666667
        k(   16) = (   0.1688463   0.5849008   0.0000000), wk =   0.0833333
        k(   17) = (   0.2532695   0.4386756   0.0000000), wk =   0.0833333
        k(   18) = (   0.2532695   0.5361591   0.0000000), wk =   0.1666667
        k(   19) = (   0.3376926   0.5849008   0.0000000), wk =   0.0277778

     Dense  grid:    50027 G-vectors     FFT dimensions: (  27,  27, 162)

     Estimated max dynamical RAM per process >      47.89 MB

     Initial potential from superposition of free atoms

     starting charge       7.9999, renormalised to       8.0000

     negative rho (up, down):  1.660E-06 0.000E+00
     Starting wfcs are    8 randomized atomic wfcs

     total cpu time spent up to now is       59.4 secs

     Self-consistent Calculation

     iteration #  1     ecut=    80.00 Ry     beta= 0.70
     Davidson diagonalization with overlap
     c_bands:  2 eigenvalues not converged
     c_bands:  1 eigenvalues not converged
     c_bands:  1 eigenvalues not converged
     c_bands:  1 eigenvalues not converged
     c_bands:  1 eigenvalues not converged
     c_bands:  1 eigenvalues not converged
     c_bands:  1 eigenvalues not converged
     c_bands:  1 eigenvalues not converged
     c_bands:  1 eigenvalues not converged
     ethr =  1.00E-06,  avg # of iterations = 18.3

     negative rho (up, down):  5.069E-08 0.000E+00

     total cpu time spent up to now is       63.4 secs

     total energy              =     -22.79343597 Ry
     estimated scf accuracy    <       0.24058441 Ry

     iteration #  2     ecut=    80.00 Ry     beta= 0.70
     Davidson diagonalization with overlap
     ethr =  3.01E-03,  avg # of iterations =  2.8

     total cpu time spent up to now is       64.5 secs

     total energy              =     -22.83462893 Ry
     estimated scf accuracy    <       0.00285989 Ry

     iteration #  3     ecut=    80.00 Ry     beta= 0.70
     Davidson diagonalization with overlap
     ethr =  3.57E-05,  avg # of iterations =  7.0

     total cpu time spent up to now is       66.1 secs

     total energy              =     -22.83507810 Ry
     estimated scf accuracy    <       0.00016949 Ry

     iteration #  4     ecut=    80.00 Ry     beta= 0.70
     Davidson diagonalization with overlap
     ethr =  2.12E-06,  avg # of iterations =  4.4

     total cpu time spent up to now is       67.2 secs

     total energy              =     -22.83509036 Ry
     estimated scf accuracy    <       0.00000198 Ry

     iteration #  5     ecut=    80.00 Ry     beta= 0.70
     Davidson diagonalization with overlap
     ethr =  2.48E-08,  avg # of iterations =  3.3

     total cpu time spent up to now is       68.4 secs

     total energy              =     -22.83509191 Ry
     estimated scf accuracy    <       0.00000003 Ry

     iteration #  6     ecut=    80.00 Ry     beta= 0.70
     Davidson diagonalization with overlap
     ethr =  4.26E-10,  avg # of iterations =  2.5

     total cpu time spent up to now is       69.5 secs

     total energy              =     -22.83509192 Ry
     estimated scf accuracy    <          9.4E-10 Ry

     iteration #  7     ecut=    80.00 Ry     beta= 0.70
     Davidson diagonalization with overlap
     ethr =  1.18E-11,  avg # of iterations =  2.6

     total cpu time spent up to now is       70.6 secs

     End of self-consistent calculation

          k = 0.0000 0.0000 0.0000 (  6333 PWs)   bands (ev):

   -21.5091  -9.7726  -4.8962  -4.8962   1.4166   2.4739   2.9490   4.7918

          k =-0.0000 0.0975 0.0000 (  6329 PWs)   bands (ev):

   -21.3419  -9.5697  -5.5401  -5.2490   1.6438   2.7043   3.1823   5.0208

          k =-0.0000 0.1950 0.0000 (  6307 PWs)   bands (ev):

   -20.8416  -8.9657  -7.1719  -6.0713   2.3258   3.3936   3.8824   5.7044

          k =-0.0000 0.2925 0.0000 (  6275 PWs)   bands (ev):

   -20.0138  -9.2798  -7.9793  -6.9837   3.4602   4.5164   5.0483   5.6574

          k =-0.0000 0.3899 0.0000 (  6255 PWs)   bands (ev):

   -18.8700 -11.5072  -7.7415  -6.6616   3.1952   5.0357   6.1685   6.2898

          k =-0.0000 0.4874 0.0000 (  6246 PWs)   bands (ev):

   -17.4354 -13.6463  -8.2307  -5.1756   0.9604   6.0630   7.0916   8.1919

          k = 0.0000-0.5849 0.0000 (  6218 PWs)   bands (ev):

   -16.0415 -15.2836  -8.3978  -4.2827  -0.1974   6.0018   9.4564   9.5454

          k = 0.0844 0.1462 0.0000 (  6309 PWs)   bands (ev):

   -21.0080  -9.1662  -6.5616  -5.9537   2.0987   3.1644   3.6491   5.4778

          k = 0.0844 0.2437 0.0000 (  6297 PWs)   bands (ev):

   -20.3441  -8.3699  -8.2713  -6.9844   3.0082   4.0792   4.5831   6.3586

          k = 0.0844 0.3412 0.0000 (  6276 PWs)   bands (ev):

   -19.3586 -10.3638  -7.8937  -7.2114   4.2611   4.3672   5.4781   5.9816

          k = 0.0844 0.4387 0.0000 (  6258 PWs)   bands (ev):

   -18.0684 -12.5179  -8.5447  -5.7749   1.9645   6.1542   6.9005   7.2694

          k = 0.0844 0.5362 0.0000 (  6230 PWs)   bands (ev):

   -16.5260 -14.5237  -8.8804  -4.4008   0.1071   6.7303   8.4055   9.4349

          k = 0.1688 0.2925 0.0000 (  6303 PWs)   bands (ev):

   -19.5226  -9.5820  -8.3980  -7.3979   4.1434   4.7532   5.2136   5.7509

          k = 0.1688 0.3899 0.0000 (  6248 PWs)   bands (ev):

   -18.3891 -11.3303  -9.4690  -6.0947   2.7299   5.7222   6.7691   7.3832

          k = 0.1688 0.4874 0.0000 (  6247 PWs)   bands (ev):

   -16.9752 -13.2922 -10.0417  -4.6061   0.7332   7.7182   8.6198   8.6201

          k = 0.1688 0.5849 0.0000 (  6250 PWs)   bands (ev):

   -15.6238 -14.8487 -10.2263  -3.6656  -0.3913   8.5319   9.7842  10.0179

          k = 0.2533 0.4387 0.0000 (  6267 PWs)   bands (ev):

   -17.1309 -12.3253 -11.0279  -4.6975   1.0656   7.5013   8.2887   9.2455

          k = 0.2533 0.5362 0.0000 (  6243 PWs)   bands (ev):

   -15.6514 -13.8097 -11.7315  -3.2500  -0.5122   8.9341   9.6285  10.7550

          k = 0.3377 0.5849 0.0000 (  6246 PWs)   bands (ev):

   -14.3750 -14.3750 -12.7626  -1.8446  -1.8446   8.5881  11.2910  11.2910

     the Fermi energy is    -1.8067 ev

!    total energy              =     -22.83509192 Ry
     estimated scf accuracy    <          4.7E-12 Ry
     smearing contrib. (-TS)   =      -0.00018232 Ry
     internal energy E=F+TS    =     -22.83490959 Ry

     The total energy is F=E-TS. E is the sum of the following terms:
     one-electron contribution =    -161.86299798 Ry
     hartree contribution      =      82.24465574 Ry
     xc contribution           =      -6.99281284 Ry
     ewald contribution        =      63.77624549 Ry

     convergence has been achieved in   7 iterations

     Forces acting on atoms (cartesian axes, Ry/au):

     atom    1 type  1   force =     0.00000000    0.00000000    0.00000000
     atom    2 type  1   force =    -0.00000000    0.00000000    0.00000000

     Total force =     0.000000     Total SCF correction =     0.000000


     Computing stress (Cartesian axis) and pressure

          total   stress  (Ry/bohr**3)                   (kbar)     P=       -6.72
  -0.00001085   0.00000000  -0.00000000           -1.60        0.00       -0.00
  -0.00000000  -0.00001085   0.00000000           -0.00       -1.60        0.00
  -0.00000000   0.00000000  -0.00011543           -0.00        0.00      -16.98


     Writing all to output data dir ../tmp/gr.save/

     init_run     :      2.43s CPU      2.47s WALL (       2 calls)
     electrons    :     54.88s CPU     59.40s WALL (       5 calls)
     update_pot   :      3.45s CPU      3.48s WALL (       3 calls)
     forces       :      2.35s CPU      2.38s WALL (       5 calls)
     stress       :      3.53s CPU      3.53s WALL (       5 calls)

     Called by init_run:
     wfcinit      :      0.80s CPU      0.82s WALL (       2 calls)
     potinit      :      0.94s CPU      0.95s WALL (       2 calls)
     hinit0       :      0.65s CPU      0.65s WALL (       2 calls)

     Called by electrons:
     c_bands      :     47.46s CPU     51.15s WALL (      46 calls)
     sum_band     :      6.77s CPU      6.78s WALL (      46 calls)
     v_of_rho     :      0.28s CPU      0.29s WALL (      50 calls)
     mix_rho      :      0.33s CPU      0.37s WALL (      46 calls)

     Called by c_bands:
     init_us_2    :      0.28s CPU      0.29s WALL (    1976 calls)
     init_us_2:cp :      0.28s CPU      0.29s WALL (    1976 calls)
     cegterg      :     46.61s CPU     47.16s WALL (     874 calls)

     Called by *egterg:
     cdiaghg      :      0.22s CPU      0.22s WALL (    4000 calls)
     h_psi        :     39.66s CPU     40.20s WALL (    4114 calls)
     g_psi        :      0.27s CPU      0.27s WALL (    3202 calls)

     Called by h_psi:
     h_psi:calbec :      0.31s CPU      0.31s WALL (    4114 calls)
     vloc_psi     :     38.83s CPU     39.37s WALL (    4114 calls)
     add_vuspsi   :      0.27s CPU      0.27s WALL (    4114 calls)

     General routines
     calbec       :      0.33s CPU      0.35s WALL (    4589 calls)
     fft          :      0.37s CPU      0.38s WALL (     174 calls)
     ffts         :      0.07s CPU      0.07s WALL (      46 calls)
     fftw         :     41.52s CPU     42.02s WALL (   48782 calls)


     PWSCF        :   1m 6.70s CPU   1m12.42s WALL


   This run was terminated on:   0:43:26  25Aug2023            

=------------------------------------------------------------------------------=
   JOB DONE.
=------------------------------------------------------------------------------=
