
     Program PWSCF v.6.4.1 starts on 19Aug2023 at 22:58:52 

     This program is part of the open-source Quantum ESPRESSO suite
     for quantum simulation of materials; please cite
         "P. Giannozzi et al., J. Phys.:Condens. Matter 21 395502 (2009);
         "P. Giannozzi et al., J. Phys.:Condens. Matter 29 465901 (2017);
          URL http://www.quantum-espresso.org", 
     in publications or presentations arising from this work. More details at
     http://www.quantum-espresso.org/quote

     Parallel version (MPI & OpenMP), running on      16 processor cores
     Number of MPI processes:                 1
     Threads/MPI process:                    16

     MPI processes distributed on     1 nodes
     Waiting for input...
     Reading input from standard input

     Current dimensions of program PWSCF are:
     Max number of different atomic species (ntypx) = 10
     Max number of k-points (npk) =  40000
     Max angular momentum in pseudopotentials (lmaxx) =  3

     Subspace diagonalization in iterative solution of the eigenvalue problem:
     a serial algorithm will be used


     G-vector sticks info
     --------------------
     sticks:   dense  smooth     PW     G-vecs:    dense   smooth      PW
     Sum         661     295     91                43395    12839    2335



     bravais-lattice index     =            4
     lattice parameter (alat)  =       4.6100  a.u.
     unit-cell volume          =     268.4669 (a.u.)^3
     number of atoms/cell      =            4
     number of atomic types    =            1
     number of electrons       =        16.00
     number of Kohn-Sham states=           12
     kinetic-energy cutoff     =      50.0000  Ry
     charge density cutoff     =     450.0000  Ry
     convergence threshold     =      1.0E-06
     mixing beta               =       0.7000
     number of iterations used =            8  plain     mixing
     Exchange-correlation      = PBE ( 1  4  3  4 0 0)

     celldm(1)=   4.610000  celldm(2)=   0.000000  celldm(3)=   3.164151
     celldm(4)=   0.000000  celldm(5)=   0.000000  celldm(6)=   0.000000

     crystal axes: (cart. coord. in units of alat)
               a(1) = (   1.000000   0.000000   0.000000 )  
               a(2) = (  -0.500000   0.866025   0.000000 )  
               a(3) = (   0.000000   0.000000   3.164151 )  

     reciprocal axes: (cart. coord. in units 2 pi/alat)
               b(1) = (  1.000000  0.577350 -0.000000 )  
               b(2) = (  0.000000  1.154701  0.000000 )  
               b(3) = (  0.000000 -0.000000  0.316040 )  


     PseudoPot. # 1 for C  read from file:
     .\C.pbe-n-rrkjus_psl.1.0.0.UPF
     MD5 check sum: 1fdd950c42eb37d8afe3dd2f8d12311e
     Pseudo is Ultrasoft + core correction, Zval =  4.0
     Generated using "atomic" code by A. Dal Corso v.6.3MaX
     Using radial grid of 1073 points,  4 beta functions with: 
                l(1) =   0
                l(2) =   0
                l(3) =   1
                l(4) =   1
     Q(r) pseudized with 0 coefficients 


     atomic species   valence    mass     pseudopotential
        C              4.00    12.01070     C ( 1.00)

     24 Sym. Ops., with inversion, found (12 have fractional translation)



   Cartesian axes

     site n.     atom                  positions (alat units)
         1           C   tau(   1) = (   0.0000000   0.0000000   0.7910379  )
         2           C   tau(   2) = (   0.0000000   0.0000000   2.3731136  )
         3           C   tau(   3) = (  -0.0000005   0.5773506   0.7910379  )
         4           C   tau(   4) = (   0.5000005   0.2886748   2.3731136  )

     number of k points=    14  gaussian smearing, width (Ry)=  0.0100
                       cart. coord. in units 2pi/alat
        k(    1) = (   0.0000000   0.0000000   0.0000000), wk =   0.0277778
        k(    2) = (   0.0000000   0.0000000  -0.1580202), wk =   0.0277778
        k(    3) = (   0.0000000   0.1924501   0.0000000), wk =   0.1666667
        k(    4) = (   0.0000000   0.1924501  -0.1580202), wk =   0.1666667
        k(    5) = (   0.0000000   0.3849002   0.0000000), wk =   0.1666667
        k(    6) = (   0.0000000   0.3849002  -0.1580202), wk =   0.1666667
        k(    7) = (   0.0000000  -0.5773503   0.0000000), wk =   0.0833333
        k(    8) = (   0.0000000  -0.5773503  -0.1580202), wk =   0.0833333
        k(    9) = (   0.1666667   0.2886751   0.0000000), wk =   0.1666667
        k(   10) = (   0.1666667   0.2886751  -0.1580202), wk =   0.1666667
        k(   11) = (   0.1666667   0.4811252   0.0000000), wk =   0.3333333
        k(   12) = (   0.1666667   0.4811252  -0.1580202), wk =   0.3333333
        k(   13) = (   0.3333333   0.5773503   0.0000000), wk =   0.0555556
        k(   14) = (   0.3333333   0.5773503  -0.1580202), wk =   0.0555556

     Dense  grid:    43395 G-vectors     FFT dimensions: (  32,  32, 100)

     Smooth grid:    12839 G-vectors     FFT dimensions: (  24,  24,  72)

     Estimated max dynamical RAM per process >      61.51 MB

     Check: negative core charge=   -0.000001

     Initial potential from superposition of free atoms

     starting charge   15.99983, renormalised to   16.00000
     Starting wfcs are   16 randomized atomic wfcs

     total cpu time spent up to now is        1.8 secs

     Self-consistent Calculation

     iteration #  1     ecut=    50.00 Ry     beta= 0.70
     Davidson diagonalization with overlap
     ethr =  1.00E-02,  avg # of iterations =  3.1

     total cpu time spent up to now is        3.0 secs

     total energy              =     -49.63717013 Ry
     Harris-Foulkes estimate   =     -49.89534977 Ry
     estimated scf accuracy    <       0.43291100 Ry

     iteration #  2     ecut=    50.00 Ry     beta= 0.70
     Davidson diagonalization with overlap
     ethr =  2.71E-03,  avg # of iterations =  2.5

     total cpu time spent up to now is        4.0 secs

     total energy              =     -49.70478041 Ry
     Harris-Foulkes estimate   =     -49.70519184 Ry
     estimated scf accuracy    <       0.00505404 Ry

     iteration #  3     ecut=    50.00 Ry     beta= 0.70
     Davidson diagonalization with overlap
     ethr =  3.16E-05,  avg # of iterations =  5.2

     total cpu time spent up to now is        5.2 secs

     total energy              =     -49.70526540 Ry
     Harris-Foulkes estimate   =     -49.70521121 Ry
     estimated scf accuracy    <       0.00034289 Ry

     iteration #  4     ecut=    50.00 Ry     beta= 0.70
     Davidson diagonalization with overlap
     ethr =  2.14E-06,  avg # of iterations =  1.6

     total cpu time spent up to now is        6.1 secs

     total energy              =     -49.70528008 Ry
     Harris-Foulkes estimate   =     -49.70527936 Ry
     estimated scf accuracy    <       0.00000110 Ry

     iteration #  5     ecut=    50.00 Ry     beta= 0.70
     Davidson diagonalization with overlap
     ethr =  6.90E-09,  avg # of iterations =  2.8

     total cpu time spent up to now is        7.1 secs

     End of self-consistent calculation

          k = 0.0000 0.0000 0.0000 (  1593 PWs)   bands (ev):

   -14.0505 -13.9596  -2.4965  -1.6054   2.7186   2.7186   2.7221   2.7221
     9.0844  13.4217  14.3142  14.3143

          k = 0.0000 0.0000-0.1580 (  1580 PWs)   bands (ev):

   -14.0055 -14.0055  -2.0792  -2.0792   2.7203   2.7203   2.7204   2.7204
    10.7975  10.7975  14.3207  14.3207

          k = 0.0000 0.1925 0.0000 (  1585 PWs)   bands (ev):

   -13.3827 -13.2963  -1.6843  -0.8214   0.3954   0.4104   1.5473   1.5557
     9.9418  14.1568  14.3318  14.4104

          k = 0.0000 0.1925-0.1580 (  1594 PWs)   bands (ev):

   -13.3399 -13.3399  -1.2794  -1.2794   0.4029   0.4029   1.5515   1.5515
    11.6107  11.6107  14.3894  14.3894

          k = 0.0000 0.3849 0.0000 (  1625 PWs)   bands (ev):

   -11.4119 -11.3380  -3.9874  -3.9525  -0.1169  -0.1057   0.6453   1.3968
    10.6414  11.0147  12.4891  13.7592

          k = 0.0000 0.3849-0.1580 (  1604 PWs)   bands (ev):

   -11.3753 -11.3753  -3.9700  -3.9700  -0.1113  -0.1113   1.0013   1.0013
    10.8012  10.8012  13.6966  13.6966

          k = 0.0000-0.5774 0.0000 (  1622 PWs)   bands (ev):

    -8.6367  -8.6054  -7.6990  -7.6747  -0.7712  -0.7593   3.1892   3.4784
     7.3206   7.6857  13.4329  13.5623

          k = 0.0000-0.5774-0.1580 (  1600 PWs)   bands (ev):

    -8.6206  -8.6206  -7.6877  -7.6877  -0.7652  -0.7652   3.3432   3.3432
     7.4560   7.4560  13.4969  13.4969

          k = 0.1667 0.2887 0.0000 (  1599 PWs)   bands (ev):

   -12.0636 -11.9855  -2.0620  -2.0488  -0.7648  -0.7553  -0.1023   0.6952
    11.6602  12.2520  12.4316  15.5109

          k = 0.1667 0.2887-0.1580 (  1596 PWs)   bands (ev):

   -12.0249 -12.0249  -2.0554  -2.0554  -0.7601  -0.7601   0.2738   0.2738
    12.3407  12.3407  13.2156  13.2156

          k = 0.1667 0.4811 0.0000 (  1599 PWs)   bands (ev):

    -9.5207  -9.4589  -5.7890  -5.7490  -2.4320  -2.4094   2.7500   3.3356
     8.1998   8.5249  15.0050  16.0503

          k = 0.1667 0.4811-0.1580 (  1606 PWs)   bands (ev):

    -9.4900  -9.4900  -5.7691  -5.7691  -2.4207  -2.4207   3.0331   3.0331
     8.3500   8.3500  15.9418  15.9418

          k = 0.3333 0.5774 0.0000 (  1605 PWs)   bands (ev):

    -6.9540  -6.9287  -6.9287  -6.9032  -5.0464  -5.0464   5.5097   5.7662
     5.7662   6.0488  16.6033  16.6033

          k = 0.3333 0.5774-0.1580 (  1584 PWs)   bands (ev):

    -6.9287  -6.9287  -6.9285  -6.9285  -5.0468  -5.0468   5.7691   5.7691
     5.7714   5.7714  16.1577  16.1577

     the Fermi energy is     5.7690 ev

!    total energy              =     -49.70528050 Ry
     Harris-Foulkes estimate   =     -49.70528088 Ry
     estimated scf accuracy    <       0.00000068 Ry

     The total energy is the sum of the following terms:

     one-electron contribution =     -23.22781314 Ry
     hartree contribution      =      18.96426569 Ry
     xc contribution           =     -18.65265257 Ry
     ewald contribution        =     -26.78813396 Ry
     smearing contrib. (-TS)   =      -0.00094651 Ry

     convergence has been achieved in   5 iterations

     init_run     :      1.58s CPU      0.90s WALL (       1 calls)
     electrons    :     14.66s CPU      5.33s WALL (       1 calls)

     Called by init_run:
     wfcinit      :      1.12s CPU      0.38s WALL (       1 calls)
     potinit      :      0.05s CPU      0.04s WALL (       1 calls)
     hinit0       :      0.39s CPU      0.43s WALL (       1 calls)

     Called by electrons:
     c_bands      :     10.59s CPU      3.82s WALL (       5 calls)
     sum_band     :      3.39s CPU      1.25s WALL (       5 calls)
     v_of_rho     :      0.22s CPU      0.11s WALL (       6 calls)
     newd         :      0.44s CPU      0.18s WALL (       6 calls)
     mix_rho      :      0.00s CPU      0.01s WALL (       5 calls)

     Called by c_bands:
     init_us_2    :      0.20s CPU      0.06s WALL (     154 calls)
     cegterg      :     10.31s CPU      3.73s WALL (      70 calls)

     Called by sum_band:
     sum_band:bec :      0.16s CPU      0.08s WALL (      70 calls)
     addusdens    :      0.50s CPU      0.25s WALL (       5 calls)

     Called by *egterg:
     h_psi        :      9.86s CPU      3.55s WALL (     298 calls)
     s_psi        :      0.11s CPU      0.02s WALL (     298 calls)
     g_psi        :      0.19s CPU      0.07s WALL (     214 calls)
     cdiaghg      :      0.19s CPU      0.07s WALL (     284 calls)

     Called by h_psi:
     h_psi:pot    :      9.77s CPU      3.46s WALL (     298 calls)
     h_psi:calbec :      0.14s CPU      0.03s WALL (     298 calls)
     vloc_psi     :      9.53s CPU      3.40s WALL (     298 calls)
     add_vuspsi   :      0.09s CPU      0.04s WALL (     298 calls)

     General routines
     calbec       :      0.19s CPU      0.04s WALL (     368 calls)
     fft          :      0.03s CPU      0.03s WALL (      76 calls)
     ffts         :      0.00s CPU      0.00s WALL (      11 calls)
     fftw         :      2.20s CPU      0.51s WALL (    5790 calls)
     interpolate  :      0.02s CPU      0.01s WALL (       6 calls)

     Parallel routines

     PWSCF        :     16.78s CPU      7.15s WALL


   This run was terminated on:  22:58:59  19Aug2023            

=------------------------------------------------------------------------------=
   JOB DONE.
=------------------------------------------------------------------------------=
