
     Program PWSCF v.6.4.1 starts on 19Aug2023 at 23: 0:12 

     This program is part of the open-source Quantum ESPRESSO suite
     for quantum simulation of materials; please cite
         "P. Giannozzi et al., J. Phys.:Condens. Matter 21 395502 (2009);
         "P. Giannozzi et al., J. Phys.:Condens. Matter 29 465901 (2017);
          URL http://www.quantum-espresso.org", 
     in publications or presentations arising from this work. More details at
     http://www.quantum-espresso.org/quote

     Parallel version (MPI & OpenMP), running on      16 processor cores
     Number of MPI processes:                 1
     Threads/MPI process:                    16

     MPI processes distributed on     1 nodes
     Waiting for input...
     Reading input from standard input

     Current dimensions of program PWSCF are:
     Max number of different atomic species (ntypx) = 10
     Max number of k-points (npk) =  40000
     Max angular momentum in pseudopotentials (lmaxx) =  3

     Subspace diagonalization in iterative solution of the eigenvalue problem:
     a serial algorithm will be used


     G-vector sticks info
     --------------------
     sticks:   dense  smooth     PW     G-vecs:    dense   smooth      PW
     Sum         673     301     91                45785    13615    2407



     bravais-lattice index     =            4
     lattice parameter (alat)  =       4.7000  a.u.
     unit-cell volume          =     284.4995 (a.u.)^3
     number of atoms/cell      =            4
     number of atomic types    =            1
     number of electrons       =        16.00
     number of Kohn-Sham states=           12
     kinetic-energy cutoff     =      50.0000  Ry
     charge density cutoff     =     450.0000  Ry
     convergence threshold     =      1.0E-06
     mixing beta               =       0.7000
     number of iterations used =            8  plain     mixing
     Exchange-correlation      = PBE ( 1  4  3  4 0 0)

     celldm(1)=   4.700000  celldm(2)=   0.000000  celldm(3)=   3.164151
     celldm(4)=   0.000000  celldm(5)=   0.000000  celldm(6)=   0.000000

     crystal axes: (cart. coord. in units of alat)
               a(1) = (   1.000000   0.000000   0.000000 )  
               a(2) = (  -0.500000   0.866025   0.000000 )  
               a(3) = (   0.000000   0.000000   3.164151 )  

     reciprocal axes: (cart. coord. in units 2 pi/alat)
               b(1) = (  1.000000  0.577350 -0.000000 )  
               b(2) = (  0.000000  1.154701  0.000000 )  
               b(3) = (  0.000000 -0.000000  0.316040 )  


     PseudoPot. # 1 for C  read from file:
     .\C.pbe-n-rrkjus_psl.1.0.0.UPF
     MD5 check sum: 1fdd950c42eb37d8afe3dd2f8d12311e
     Pseudo is Ultrasoft + core correction, Zval =  4.0
     Generated using "atomic" code by A. Dal Corso v.6.3MaX
     Using radial grid of 1073 points,  4 beta functions with: 
                l(1) =   0
                l(2) =   0
                l(3) =   1
                l(4) =   1
     Q(r) pseudized with 0 coefficients 


     atomic species   valence    mass     pseudopotential
        C              4.00    12.01070     C ( 1.00)

     24 Sym. Ops., with inversion, found (12 have fractional translation)



   Cartesian axes

     site n.     atom                  positions (alat units)
         1           C   tau(   1) = (   0.0000000   0.0000000   0.7910379  )
         2           C   tau(   2) = (   0.0000000   0.0000000   2.3731136  )
         3           C   tau(   3) = (  -0.0000005   0.5773506   0.7910379  )
         4           C   tau(   4) = (   0.5000005   0.2886748   2.3731136  )

     number of k points=    14  gaussian smearing, width (Ry)=  0.0100
                       cart. coord. in units 2pi/alat
        k(    1) = (   0.0000000   0.0000000   0.0000000), wk =   0.0277778
        k(    2) = (   0.0000000   0.0000000  -0.1580202), wk =   0.0277778
        k(    3) = (   0.0000000   0.1924501   0.0000000), wk =   0.1666667
        k(    4) = (   0.0000000   0.1924501  -0.1580202), wk =   0.1666667
        k(    5) = (   0.0000000   0.3849002   0.0000000), wk =   0.1666667
        k(    6) = (   0.0000000   0.3849002  -0.1580202), wk =   0.1666667
        k(    7) = (   0.0000000  -0.5773503   0.0000000), wk =   0.0833333
        k(    8) = (   0.0000000  -0.5773503  -0.1580202), wk =   0.0833333
        k(    9) = (   0.1666667   0.2886751   0.0000000), wk =   0.1666667
        k(   10) = (   0.1666667   0.2886751  -0.1580202), wk =   0.1666667
        k(   11) = (   0.1666667   0.4811252   0.0000000), wk =   0.3333333
        k(   12) = (   0.1666667   0.4811252  -0.1580202), wk =   0.3333333
        k(   13) = (   0.3333333   0.5773503   0.0000000), wk =   0.0555556
        k(   14) = (   0.3333333   0.5773503  -0.1580202), wk =   0.0555556

     Dense  grid:    45785 G-vectors     FFT dimensions: (  32,  32, 108)

     Smooth grid:    13615 G-vectors     FFT dimensions: (  24,  24,  72)

     Estimated max dynamical RAM per process >      65.08 MB

     Check: negative core charge=   -0.000001

     Initial potential from superposition of free atoms

     starting charge   15.99983, renormalised to   16.00000
     Starting wfcs are   16 randomized atomic wfcs

     total cpu time spent up to now is        2.0 secs

     Self-consistent Calculation

     iteration #  1     ecut=    50.00 Ry     beta= 0.70
     Davidson diagonalization with overlap
     ethr =  1.00E-02,  avg # of iterations =  3.1

     total cpu time spent up to now is        3.8 secs

     total energy              =     -49.64891319 Ry
     Harris-Foulkes estimate   =     -49.86541966 Ry
     estimated scf accuracy    <       0.37032716 Ry

     iteration #  2     ecut=    50.00 Ry     beta= 0.70
     Davidson diagonalization with overlap
     ethr =  2.31E-03,  avg # of iterations =  2.6

     total cpu time spent up to now is        5.2 secs

     total energy              =     -49.70603148 Ry
     Harris-Foulkes estimate   =     -49.70639217 Ry
     estimated scf accuracy    <       0.00482368 Ry

     iteration #  3     ecut=    50.00 Ry     beta= 0.70
     Davidson diagonalization with overlap
     ethr =  3.01E-05,  avg # of iterations =  4.9

     total cpu time spent up to now is        6.6 secs

     total energy              =     -49.70645781 Ry
     Harris-Foulkes estimate   =     -49.70640880 Ry
     estimated scf accuracy    <       0.00033483 Ry

     iteration #  4     ecut=    50.00 Ry     beta= 0.70
     Davidson diagonalization with overlap
     ethr =  2.09E-06,  avg # of iterations =  2.4

     total cpu time spent up to now is        7.8 secs

     total energy              =     -49.70647487 Ry
     Harris-Foulkes estimate   =     -49.70647436 Ry
     estimated scf accuracy    <       0.00000113 Ry

     iteration #  5     ecut=    50.00 Ry     beta= 0.70
     Davidson diagonalization with overlap
     ethr =  7.07E-09,  avg # of iterations =  2.9

     total cpu time spent up to now is        9.3 secs

     total energy              =     -49.70647542 Ry
     Harris-Foulkes estimate   =     -49.70647573 Ry
     estimated scf accuracy    <       0.00000101 Ry

     iteration #  6     ecut=    50.00 Ry     beta= 0.70
     Davidson diagonalization with overlap
     ethr =  6.34E-09,  avg # of iterations =  1.6

     total cpu time spent up to now is       10.5 secs

     End of self-consistent calculation

          k = 0.0000 0.0000 0.0000 (  1689 PWs)   bands (ev):

   -14.1650 -14.0860  -2.6568  -1.8399   2.1110   2.1110   2.1141   2.1142
     8.6271  13.3446  13.3448  13.3563

          k = 0.0000 0.0000-0.1580 (  1666 PWs)   bands (ev):

   -14.1259 -14.1259  -2.2733  -2.2733   2.1126   2.1126   2.1126   2.1126
    10.2474  10.2474  13.3505  13.3506

          k = 0.0000 0.1925 0.0000 (  1709 PWs)   bands (ev):

   -13.5200 -13.4449  -1.8821  -1.0924  -0.1551  -0.1418   1.0067   1.0143
     9.4560  13.3003  13.3630  13.4346

          k = 0.0000 0.1925-0.1580 (  1708 PWs)   bands (ev):

   -13.4828 -13.4828  -1.5106  -1.5106  -0.1485  -0.1485   1.0105   1.0105
    11.0327  11.0327  13.3448  13.3448

          k = 0.0000 0.3849 0.0000 (  1703 PWs)   bands (ev):

   -11.6188 -11.5543  -4.4019  -4.3711  -0.5717  -0.5616   0.3350   1.0189
     9.8414  10.1698  11.9058  12.6313

          k = 0.0000 0.3849-0.1580 (  1696 PWs)   bands (ev):

   -11.5868 -11.5868  -4.3866  -4.3866  -0.5667  -0.5667   0.6599   0.6599
     9.9846   9.9846  12.6364  12.6364

          k = 0.0000-0.5774 0.0000 (  1716 PWs)   bands (ev):

    -9.0193  -8.9921  -7.9120  -7.8905  -1.1941  -1.1833   2.7314   2.9946
     6.7211   7.0458  12.2814  12.3919

          k = 0.0000-0.5774-0.1580 (  1704 PWs)   bands (ev):

    -9.0054  -9.0054  -7.9018  -7.9018  -1.1887  -1.1887   2.8708   2.8708
     6.8441   6.8441  12.3363  12.3363

          k = 0.1667 0.2887 0.0000 (  1711 PWs)   bands (ev):

   -12.2466 -12.1787  -2.5697  -2.5579  -1.1839  -1.1753  -0.3752   0.3521
    11.1133  11.3289  11.4881  14.7405

          k = 0.1667 0.2887-0.1580 (  1696 PWs)   bands (ev):

   -12.2129 -12.2129  -2.5637  -2.5637  -1.1797  -1.1797  -0.0312  -0.0312
    11.4076  11.4076  12.5786  12.5786

          k = 0.1667 0.4811 0.0000 (  1690 PWs)   bands (ev):

    -9.8026  -9.7489  -6.1527  -6.1182  -2.7979  -2.7782   2.3306   2.8599
     7.5189   7.8058  14.3252  14.8526

          k = 0.1667 0.4811-0.1580 (  1694 PWs)   bands (ev):

    -9.7759  -9.7759  -6.1356  -6.1356  -2.7881  -2.7881   2.5870   2.5870
     7.6521   7.6521  14.8880  14.8880

          k = 0.3333 0.5774 0.0000 (  1653 PWs)   bands (ev):

    -7.3653  -7.3423  -7.3423  -7.3207  -5.2057  -5.2057   4.9466   5.1811
     5.1811   5.4336  15.9164  15.9165

          k = 0.3333 0.5774-0.1580 (  1692 PWs)   bands (ev):

    -7.3432  -7.3432  -7.3423  -7.3423  -5.2060  -5.2060   5.1815   5.1815
     5.1854   5.1854  15.4837  15.4837

     the Fermi energy is     5.1827 ev

!    total energy              =     -49.70647561 Ry
     Harris-Foulkes estimate   =     -49.70647560 Ry
     estimated scf accuracy    <       0.00000002 Ry

     The total energy is the sum of the following terms:

     one-electron contribution =     -23.94907417 Ry
     hartree contribution      =      18.99630618 Ry
     xc contribution           =     -18.47758489 Ry
     ewald contribution        =     -26.27516968 Ry
     smearing contrib. (-TS)   =      -0.00095305 Ry

     convergence has been achieved in   6 iterations

     init_run     :      1.66s CPU      1.15s WALL (       1 calls)
     electrons    :     15.91s CPU      8.54s WALL (       1 calls)

     Called by init_run:
     wfcinit      :      1.09s CPU      0.53s WALL (       1 calls)
     potinit      :      0.14s CPU      0.06s WALL (       1 calls)
     hinit0       :      0.36s CPU      0.50s WALL (       1 calls)

     Called by electrons:
     c_bands      :     11.95s CPU      6.14s WALL (       6 calls)
     sum_band     :      3.14s CPU      1.94s WALL (       6 calls)
     v_of_rho     :      0.39s CPU      0.19s WALL (       7 calls)
     newd         :      0.42s CPU      0.30s WALL (       7 calls)
     mix_rho      :      0.06s CPU      0.03s WALL (       6 calls)

     Called by c_bands:
     init_us_2    :      0.20s CPU      0.11s WALL (     182 calls)
     cegterg      :     11.61s CPU      5.98s WALL (      84 calls)

     Called by sum_band:
     sum_band:bec :      0.23s CPU      0.13s WALL (      84 calls)
     addusdens    :      0.56s CPU      0.37s WALL (       6 calls)

     Called by *egterg:
     h_psi        :     10.95s CPU      5.58s WALL (     343 calls)
     s_psi        :      0.12s CPU      0.04s WALL (     343 calls)
     g_psi        :      0.09s CPU      0.08s WALL (     245 calls)
     cdiaghg      :      0.22s CPU      0.08s WALL (     329 calls)

     Called by h_psi:
     h_psi:pot    :     10.78s CPU      5.42s WALL (     343 calls)
     h_psi:calbec :      0.09s CPU      0.09s WALL (     343 calls)
     vloc_psi     :     10.52s CPU      5.27s WALL (     343 calls)
     add_vuspsi   :      0.17s CPU      0.07s WALL (     343 calls)

     General routines
     calbec       :      0.17s CPU      0.12s WALL (     427 calls)
     fft          :      0.08s CPU      0.03s WALL (      89 calls)
     ffts         :      0.02s CPU      0.00s WALL (      13 calls)
     fftw         :      2.50s CPU      0.96s WALL (    6658 calls)
     interpolate  :      0.02s CPU      0.01s WALL (       7 calls)

     Parallel routines

     PWSCF        :     18.11s CPU     10.50s WALL


   This run was terminated on:  23: 0:22  19Aug2023            

=------------------------------------------------------------------------------=
   JOB DONE.
=------------------------------------------------------------------------------=
