
     Program PWSCF v.6.4.1 starts on 19Aug2023 at 23: 0:22 

     This program is part of the open-source Quantum ESPRESSO suite
     for quantum simulation of materials; please cite
         "P. Giannozzi et al., J. Phys.:Condens. Matter 21 395502 (2009);
         "P. Giannozzi et al., J. Phys.:Condens. Matter 29 465901 (2017);
          URL http://www.quantum-espresso.org", 
     in publications or presentations arising from this work. More details at
     http://www.quantum-espresso.org/quote

     Parallel version (MPI & OpenMP), running on      16 processor cores
     Number of MPI processes:                 1
     Threads/MPI process:                    16

     MPI processes distributed on     1 nodes
     Waiting for input...
     Reading input from standard input

     Current dimensions of program PWSCF are:
     Max number of different atomic species (ntypx) = 10
     Max number of k-points (npk) =  40000
     Max angular momentum in pseudopotentials (lmaxx) =  3

     Subspace diagonalization in iterative solution of the eigenvalue problem:
     a serial algorithm will be used


     G-vector sticks info
     --------------------
     sticks:   dense  smooth     PW     G-vecs:    dense   smooth      PW
     Sum         685     313     91                46109    13735    2419



     bravais-lattice index     =            4
     lattice parameter (alat)  =       4.7100  a.u.
     unit-cell volume          =     286.3193 (a.u.)^3
     number of atoms/cell      =            4
     number of atomic types    =            1
     number of electrons       =        16.00
     number of Kohn-Sham states=           12
     kinetic-energy cutoff     =      50.0000  Ry
     charge density cutoff     =     450.0000  Ry
     convergence threshold     =      1.0E-06
     mixing beta               =       0.7000
     number of iterations used =            8  plain     mixing
     Exchange-correlation      = PBE ( 1  4  3  4 0 0)

     celldm(1)=   4.710000  celldm(2)=   0.000000  celldm(3)=   3.164151
     celldm(4)=   0.000000  celldm(5)=   0.000000  celldm(6)=   0.000000

     crystal axes: (cart. coord. in units of alat)
               a(1) = (   1.000000   0.000000   0.000000 )  
               a(2) = (  -0.500000   0.866025   0.000000 )  
               a(3) = (   0.000000   0.000000   3.164151 )  

     reciprocal axes: (cart. coord. in units 2 pi/alat)
               b(1) = (  1.000000  0.577350 -0.000000 )  
               b(2) = (  0.000000  1.154701  0.000000 )  
               b(3) = (  0.000000 -0.000000  0.316040 )  


     PseudoPot. # 1 for C  read from file:
     .\C.pbe-n-rrkjus_psl.1.0.0.UPF
     MD5 check sum: 1fdd950c42eb37d8afe3dd2f8d12311e
     Pseudo is Ultrasoft + core correction, Zval =  4.0
     Generated using "atomic" code by A. Dal Corso v.6.3MaX
     Using radial grid of 1073 points,  4 beta functions with: 
                l(1) =   0
                l(2) =   0
                l(3) =   1
                l(4) =   1
     Q(r) pseudized with 0 coefficients 


     atomic species   valence    mass     pseudopotential
        C              4.00    12.01070     C ( 1.00)

     24 Sym. Ops., with inversion, found (12 have fractional translation)



   Cartesian axes

     site n.     atom                  positions (alat units)
         1           C   tau(   1) = (   0.0000000   0.0000000   0.7910379  )
         2           C   tau(   2) = (   0.0000000   0.0000000   2.3731136  )
         3           C   tau(   3) = (  -0.0000005   0.5773506   0.7910379  )
         4           C   tau(   4) = (   0.5000005   0.2886748   2.3731136  )

     number of k points=    14  gaussian smearing, width (Ry)=  0.0100
                       cart. coord. in units 2pi/alat
        k(    1) = (   0.0000000   0.0000000   0.0000000), wk =   0.0277778
        k(    2) = (   0.0000000   0.0000000  -0.1580202), wk =   0.0277778
        k(    3) = (   0.0000000   0.1924501   0.0000000), wk =   0.1666667
        k(    4) = (   0.0000000   0.1924501  -0.1580202), wk =   0.1666667
        k(    5) = (   0.0000000   0.3849002   0.0000000), wk =   0.1666667
        k(    6) = (   0.0000000   0.3849002  -0.1580202), wk =   0.1666667
        k(    7) = (   0.0000000  -0.5773503   0.0000000), wk =   0.0833333
        k(    8) = (   0.0000000  -0.5773503  -0.1580202), wk =   0.0833333
        k(    9) = (   0.1666667   0.2886751   0.0000000), wk =   0.1666667
        k(   10) = (   0.1666667   0.2886751  -0.1580202), wk =   0.1666667
        k(   11) = (   0.1666667   0.4811252   0.0000000), wk =   0.3333333
        k(   12) = (   0.1666667   0.4811252  -0.1580202), wk =   0.3333333
        k(   13) = (   0.3333333   0.5773503   0.0000000), wk =   0.0555556
        k(   14) = (   0.3333333   0.5773503  -0.1580202), wk =   0.0555556

     Dense  grid:    46109 G-vectors     FFT dimensions: (  32,  32, 108)

     Smooth grid:    13735 G-vectors     FFT dimensions: (  24,  24,  72)

     Estimated max dynamical RAM per process >      65.48 MB

     Check: negative core charge=   -0.000001

     Initial potential from superposition of free atoms

     starting charge   15.99983, renormalised to   16.00000
     Starting wfcs are   16 randomized atomic wfcs

     total cpu time spent up to now is        1.7 secs

     Self-consistent Calculation

     iteration #  1     ecut=    50.00 Ry     beta= 0.70
     Davidson diagonalization with overlap
     ethr =  1.00E-02,  avg # of iterations =  3.0

     total cpu time spent up to now is        3.2 secs

     total energy              =     -49.64925274 Ry
     Harris-Foulkes estimate   =     -49.86147455 Ry
     estimated scf accuracy    <       0.36387056 Ry

     iteration #  2     ecut=    50.00 Ry     beta= 0.70
     Davidson diagonalization with overlap
     ethr =  2.27E-03,  avg # of iterations =  2.3

     total cpu time spent up to now is        4.3 secs

     total energy              =     -49.70527629 Ry
     Harris-Foulkes estimate   =     -49.70563241 Ry
     estimated scf accuracy    <       0.00479578 Ry

     iteration #  3     ecut=    50.00 Ry     beta= 0.70
     Davidson diagonalization with overlap
     ethr =  3.00E-05,  avg # of iterations =  4.9

     total cpu time spent up to now is        5.7 secs

     total energy              =     -49.70568658 Ry
     Harris-Foulkes estimate   =     -49.70563784 Ry
     estimated scf accuracy    <       0.00033432 Ry

     iteration #  4     ecut=    50.00 Ry     beta= 0.70
     Davidson diagonalization with overlap
     ethr =  2.09E-06,  avg # of iterations =  2.8

     total cpu time spent up to now is        6.7 secs

     End of self-consistent calculation

          k = 0.0000 0.0000 0.0000 (  1713 PWs)   bands (ev):

   -14.1784 -14.1007  -2.6754  -1.8664   2.0445   2.0446   2.0476   2.0477
     8.5760  12.6586  13.2394  13.2400

          k = 0.0000 0.0000-0.1580 (  1702 PWs)   bands (ev):

   -14.1399 -14.1399  -2.2955  -2.2955   2.0461   2.0461   2.0461   2.0461
    10.1861  10.1862  13.2453  13.2453

          k = 0.0000 0.1925 0.0000 (  1723 PWs)   bands (ev):

   -13.5359 -13.4618  -1.9047  -1.1228  -0.2156  -0.2024   0.9475   0.9550
     9.4018  13.1871  13.2482  13.3539

          k = 0.0000 0.1925-0.1580 (  1724 PWs)   bands (ev):

   -13.4992 -13.4992  -1.5367  -1.5367  -0.2090  -0.2090   0.9512   0.9512
    10.9685  10.9685  13.2303  13.2304

          k = 0.0000 0.3849 0.0000 (  1707 PWs)   bands (ev):

   -11.6422 -11.5787  -4.4477  -4.4173  -0.6216  -0.6117   0.3003   0.9771
     9.7535  10.0772  11.8407  12.5076

          k = 0.0000 0.3849-0.1580 (  1712 PWs)   bands (ev):

   -11.6107 -11.6107  -4.4326  -4.4326  -0.6166  -0.6166   0.6219   0.6219
     9.8950   9.8950  12.5158  12.5158

          k = 0.0000-0.5774 0.0000 (  1716 PWs)   bands (ev):

    -9.0612  -9.0344  -7.9365  -7.9153  -1.2405  -1.2299   2.6810   2.9414
     6.6547   6.9753  12.1553  12.2639

          k = 0.0000-0.5774-0.1580 (  1724 PWs)   bands (ev):

    -9.0476  -9.0476  -7.9264  -7.9264  -1.2353  -1.2353   2.8189   2.8189
     6.7764   6.7764  12.2092  12.2092

          k = 0.1667 0.2887 0.0000 (  1711 PWs)   bands (ev):

   -12.2674 -12.2005  -2.6255  -2.6138  -1.2300  -1.2215  -0.4060   0.3140
    11.0526  11.2280  11.3850  14.6550

          k = 0.1667 0.2887-0.1580 (  1716 PWs)   bands (ev):

   -12.2342 -12.2342  -2.6196  -2.6196  -1.2259  -1.2259  -0.0654  -0.0654
    11.3056  11.3056  12.5081  12.5081

          k = 0.1667 0.4811 0.0000 (  1703 PWs)   bands (ev):

    -9.8342  -9.7813  -6.1931  -6.1592  -2.8381  -2.8186   2.2841   2.8076
     7.4440   7.7270  14.2494  14.7212

          k = 0.1667 0.4811-0.1580 (  1702 PWs)   bands (ev):

    -9.8080  -9.8080  -6.1762  -6.1762  -2.8284  -2.8284   2.5378   2.5378
     7.5755   7.5755  14.7609  14.7609

          k = 0.3333 0.5774 0.0000 (  1695 PWs)   bands (ev):

    -7.4106  -7.3877  -7.3877  -7.3667  -5.2243  -5.2243   4.8845   5.1170
     5.1170   5.3660  15.8396  15.8396

          k = 0.3333 0.5774-0.1580 (  1704 PWs)   bands (ev):

    -7.3888  -7.3888  -7.3876  -7.3876  -5.2246  -5.2246   5.1168   5.1168
     5.1213   5.1213  15.4082  15.4082

     the Fermi energy is     5.1185 ev

!    total energy              =     -49.70570428 Ry
     Harris-Foulkes estimate   =     -49.70570344 Ry
     estimated scf accuracy    <       0.00000066 Ry

     The total energy is the sum of the following terms:

     one-electron contribution =     -24.02628107 Ry
     hartree contribution      =      18.99945901 Ry
     xc contribution           =     -18.45854448 Ry
     ewald contribution        =     -26.21938376 Ry
     smearing contrib. (-TS)   =      -0.00095397 Ry

     convergence has been achieved in   4 iterations

     init_run     :      1.27s CPU      1.05s WALL (       1 calls)
     electrons    :      9.95s CPU      4.99s WALL (       1 calls)

     Called by init_run:
     wfcinit      :      0.73s CPU      0.49s WALL (       1 calls)
     potinit      :      0.16s CPU      0.04s WALL (       1 calls)
     hinit0       :      0.34s CPU      0.46s WALL (       1 calls)

     Called by electrons:
     c_bands      :      7.44s CPU      3.63s WALL (       4 calls)
     sum_band     :      2.23s CPU      1.11s WALL (       4 calls)
     v_of_rho     :      0.19s CPU      0.11s WALL (       5 calls)
     newd         :      0.19s CPU      0.18s WALL (       5 calls)
     mix_rho      :      0.00s CPU      0.01s WALL (       4 calls)

     Called by c_bands:
     init_us_2    :      0.14s CPU      0.06s WALL (     126 calls)
     cegterg      :      7.17s CPU      3.54s WALL (      56 calls)

     Called by sum_band:
     sum_band:bec :      0.12s CPU      0.08s WALL (      56 calls)
     addusdens    :      0.39s CPU      0.21s WALL (       4 calls)

     Called by *egterg:
     h_psi        :      6.66s CPU      3.44s WALL (     251 calls)
     s_psi        :      0.08s CPU      0.03s WALL (     251 calls)
     g_psi        :      0.17s CPU      0.06s WALL (     181 calls)
     cdiaghg      :      0.20s CPU      0.06s WALL (     237 calls)

     Called by h_psi:
     h_psi:pot    :      6.53s CPU      3.34s WALL (     251 calls)
     h_psi:calbec :      0.08s CPU      0.05s WALL (     251 calls)
     vloc_psi     :      6.36s CPU      3.25s WALL (     251 calls)
     add_vuspsi   :      0.09s CPU      0.04s WALL (     251 calls)

     General routines
     calbec       :      0.09s CPU      0.05s WALL (     307 calls)
     fft          :      0.05s CPU      0.02s WALL (      63 calls)
     ffts         :      0.00s CPU      0.00s WALL (       9 calls)
     fftw         :      1.22s CPU      0.61s WALL (    4702 calls)
     interpolate  :      0.00s CPU      0.01s WALL (       5 calls)

     Parallel routines

     PWSCF        :     11.83s CPU      6.74s WALL


   This run was terminated on:  23: 0:29  19Aug2023            

=------------------------------------------------------------------------------=
   JOB DONE.
=------------------------------------------------------------------------------=
