
     Program PWSCF v.6.4.1 starts on 19Aug2023 at 23: 0:29 

     This program is part of the open-source Quantum ESPRESSO suite
     for quantum simulation of materials; please cite
         "P. Giannozzi et al., J. Phys.:Condens. Matter 21 395502 (2009);
         "P. Giannozzi et al., J. Phys.:Condens. Matter 29 465901 (2017);
          URL http://www.quantum-espresso.org", 
     in publications or presentations arising from this work. More details at
     http://www.quantum-espresso.org/quote

     Parallel version (MPI & OpenMP), running on      16 processor cores
     Number of MPI processes:                 1
     Threads/MPI process:                    16

     MPI processes distributed on     1 nodes
     Waiting for input...
     Reading input from standard input

     Current dimensions of program PWSCF are:
     Max number of different atomic species (ntypx) = 10
     Max number of k-points (npk) =  40000
     Max angular momentum in pseudopotentials (lmaxx) =  3

     Subspace diagonalization in iterative solution of the eigenvalue problem:
     a serial algorithm will be used


     G-vector sticks info
     --------------------
     sticks:   dense  smooth     PW     G-vecs:    dense   smooth      PW
     Sum         685     313     91                46409    13771    2431



     bravais-lattice index     =            4
     lattice parameter (alat)  =       4.7200  a.u.
     unit-cell volume          =     288.1469 (a.u.)^3
     number of atoms/cell      =            4
     number of atomic types    =            1
     number of electrons       =        16.00
     number of Kohn-Sham states=           12
     kinetic-energy cutoff     =      50.0000  Ry
     charge density cutoff     =     450.0000  Ry
     convergence threshold     =      1.0E-06
     mixing beta               =       0.7000
     number of iterations used =            8  plain     mixing
     Exchange-correlation      = PBE ( 1  4  3  4 0 0)

     celldm(1)=   4.720000  celldm(2)=   0.000000  celldm(3)=   3.164151
     celldm(4)=   0.000000  celldm(5)=   0.000000  celldm(6)=   0.000000

     crystal axes: (cart. coord. in units of alat)
               a(1) = (   1.000000   0.000000   0.000000 )  
               a(2) = (  -0.500000   0.866025   0.000000 )  
               a(3) = (   0.000000   0.000000   3.164151 )  

     reciprocal axes: (cart. coord. in units 2 pi/alat)
               b(1) = (  1.000000  0.577350 -0.000000 )  
               b(2) = (  0.000000  1.154701  0.000000 )  
               b(3) = (  0.000000 -0.000000  0.316040 )  


     PseudoPot. # 1 for C  read from file:
     .\C.pbe-n-rrkjus_psl.1.0.0.UPF
     MD5 check sum: 1fdd950c42eb37d8afe3dd2f8d12311e
     Pseudo is Ultrasoft + core correction, Zval =  4.0
     Generated using "atomic" code by A. Dal Corso v.6.3MaX
     Using radial grid of 1073 points,  4 beta functions with: 
                l(1) =   0
                l(2) =   0
                l(3) =   1
                l(4) =   1
     Q(r) pseudized with 0 coefficients 


     atomic species   valence    mass     pseudopotential
        C              4.00    12.01070     C ( 1.00)

     24 Sym. Ops., with inversion, found (12 have fractional translation)



   Cartesian axes

     site n.     atom                  positions (alat units)
         1           C   tau(   1) = (   0.0000000   0.0000000   0.7910379  )
         2           C   tau(   2) = (   0.0000000   0.0000000   2.3731136  )
         3           C   tau(   3) = (  -0.0000005   0.5773506   0.7910379  )
         4           C   tau(   4) = (   0.5000005   0.2886748   2.3731136  )

     number of k points=    14  gaussian smearing, width (Ry)=  0.0100
                       cart. coord. in units 2pi/alat
        k(    1) = (   0.0000000   0.0000000   0.0000000), wk =   0.0277778
        k(    2) = (   0.0000000   0.0000000  -0.1580202), wk =   0.0277778
        k(    3) = (   0.0000000   0.1924501   0.0000000), wk =   0.1666667
        k(    4) = (   0.0000000   0.1924501  -0.1580202), wk =   0.1666667
        k(    5) = (   0.0000000   0.3849002   0.0000000), wk =   0.1666667
        k(    6) = (   0.0000000   0.3849002  -0.1580202), wk =   0.1666667
        k(    7) = (   0.0000000  -0.5773503   0.0000000), wk =   0.0833333
        k(    8) = (   0.0000000  -0.5773503  -0.1580202), wk =   0.0833333
        k(    9) = (   0.1666667   0.2886751   0.0000000), wk =   0.1666667
        k(   10) = (   0.1666667   0.2886751  -0.1580202), wk =   0.1666667
        k(   11) = (   0.1666667   0.4811252   0.0000000), wk =   0.3333333
        k(   12) = (   0.1666667   0.4811252  -0.1580202), wk =   0.3333333
        k(   13) = (   0.3333333   0.5773503   0.0000000), wk =   0.0555556
        k(   14) = (   0.3333333   0.5773503  -0.1580202), wk =   0.0555556

     Dense  grid:    46409 G-vectors     FFT dimensions: (  32,  32, 108)

     Smooth grid:    13771 G-vectors     FFT dimensions: (  24,  24,  72)

     Estimated max dynamical RAM per process >      65.85 MB

     Check: negative core charge=   -0.000001

     Initial potential from superposition of free atoms

     starting charge   15.99983, renormalised to   16.00000
     Starting wfcs are   16 randomized atomic wfcs

     total cpu time spent up to now is        1.7 secs

     Self-consistent Calculation

     iteration #  1     ecut=    50.00 Ry     beta= 0.70
     Davidson diagonalization with overlap
     ethr =  1.00E-02,  avg # of iterations =  3.1

     total cpu time spent up to now is        2.9 secs

     total energy              =     -49.64938605 Ry
     Harris-Foulkes estimate   =     -49.85739344 Ry
     estimated scf accuracy    <       0.35751908 Ry

     iteration #  2     ecut=    50.00 Ry     beta= 0.70
     Davidson diagonalization with overlap
     ethr =  2.23E-03,  avg # of iterations =  2.9

     total cpu time spent up to now is        4.0 secs

     total energy              =     -49.70433617 Ry
     Harris-Foulkes estimate   =     -49.70468595 Ry
     estimated scf accuracy    <       0.00477265 Ry

     iteration #  3     ecut=    50.00 Ry     beta= 0.70
     Davidson diagonalization with overlap
     ethr =  2.98E-05,  avg # of iterations =  5.0

     total cpu time spent up to now is        5.2 secs

     total energy              =     -49.70474381 Ry
     Harris-Foulkes estimate   =     -49.70469551 Ry
     estimated scf accuracy    <       0.00033219 Ry

     iteration #  4     ecut=    50.00 Ry     beta= 0.70
     Davidson diagonalization with overlap
     ethr =  2.08E-06,  avg # of iterations =  2.1

     total cpu time spent up to now is        6.2 secs

     End of self-consistent calculation

          k = 0.0000 0.0000 0.0000 (  1737 PWs)   bands (ev):

   -14.1900 -14.1136  -2.6926  -1.8913   1.9801   1.9802   1.9833   1.9833
     8.5273  13.1358  13.1359  13.1476

          k = 0.0000 0.0000-0.1580 (  1702 PWs)   bands (ev):

   -14.1522 -14.1522  -2.3162  -2.3162   1.9817   1.9817   1.9818   1.9818
    10.1275  10.1275  13.1417  13.1417

          k = 0.0000 0.1925 0.0000 (  1727 PWs)   bands (ev):

   -13.5500 -13.4771  -1.9260  -1.1516  -0.2741  -0.2611   0.8903   0.8977
     9.3500  13.0759  13.1356  13.2766

          k = 0.0000 0.1925-0.1580 (  1734 PWs)   bands (ev):

   -13.5139 -13.5139  -1.5615  -1.5615  -0.2676  -0.2676   0.8940   0.8940
    10.9069  10.9069  13.1179  13.1180

          k = 0.0000 0.3849 0.0000 (  1715 PWs)   bands (ev):

   -11.6639 -11.6014  -4.4916  -4.4616  -0.6697  -0.6599   0.2671   0.9368
     9.6677   9.9868  11.7775  12.3867

          k = 0.0000 0.3849-0.1580 (  1720 PWs)   bands (ev):

   -11.6329 -11.6329  -4.4767  -4.4767  -0.6648  -0.6648   0.5854   0.5854
     9.8074   9.8074  12.3973  12.3973

          k = 0.0000-0.5774 0.0000 (  1716 PWs)   bands (ev):

    -9.1013  -9.0749  -7.9592  -7.9383  -1.2852  -1.2748   2.6321   2.8897
     6.5903   6.9067  12.0320  12.1388

          k = 0.0000-0.5774-0.1580 (  1728 PWs)   bands (ev):

    -9.0879  -9.0879  -7.9493  -7.9493  -1.2800  -1.2800   2.7685   2.7685
     6.7106   6.7106  12.0850  12.0850

          k = 0.1667 0.2887 0.0000 (  1719 PWs)   bands (ev):

   -12.2865 -12.2206  -2.6794  -2.6679  -1.2743  -1.2659  -0.4352   0.2774
    10.9942  11.1293  11.2842  14.5729

          k = 0.1667 0.2887-0.1580 (  1720 PWs)   bands (ev):

   -12.2538 -12.2538  -2.6736  -2.6736  -1.2702  -1.2702  -0.0980  -0.0980
    11.2059  11.2059  12.4402  12.4403

          k = 0.1667 0.4811 0.0000 (  1715 PWs)   bands (ev):

    -9.8641  -9.8121  -6.2317  -6.1983  -2.8764  -2.8572   2.2392   2.7568
     7.3710   7.6501  14.1755  14.5928

          k = 0.1667 0.4811-0.1580 (  1714 PWs)   bands (ev):

    -9.8383  -9.8383  -6.2151  -6.2151  -2.8668  -2.8668   2.4901   2.4901
     7.5007   7.5007  14.6352  14.6352

          k = 0.3333 0.5774 0.0000 (  1725 PWs)   bands (ev):

    -7.4540  -7.4314  -7.4314  -7.4107  -5.2412  -5.2412   4.8243   5.0545
     5.0545   5.3003  15.7662  15.7662

          k = 0.3333 0.5774-0.1580 (  1722 PWs)   bands (ev):

    -7.4325  -7.4325  -7.4312  -7.4312  -5.2414  -5.2414   5.0540   5.0540
     5.0587   5.0587  15.3358  15.3359

     the Fermi energy is     5.0558 ev

!    total energy              =     -49.70476115 Ry
     Harris-Foulkes estimate   =     -49.70476034 Ry
     estimated scf accuracy    <       0.00000074 Ry

     The total energy is the sum of the following terms:

     one-electron contribution =     -24.10332135 Ry
     hartree contribution      =      19.00308195 Ry
     xc contribution           =     -18.43973258 Ry
     ewald contribution        =     -26.16383421 Ry
     smearing contrib. (-TS)   =      -0.00095495 Ry

     convergence has been achieved in   4 iterations

     init_run     :      1.89s CPU      0.98s WALL (       1 calls)
     electrons    :     11.00s CPU      4.54s WALL (       1 calls)

     Called by init_run:
     wfcinit      :      1.25s CPU      0.42s WALL (       1 calls)
     potinit      :      0.20s CPU      0.05s WALL (       1 calls)
     hinit0       :      0.39s CPU      0.45s WALL (       1 calls)

     Called by electrons:
     c_bands      :      8.06s CPU      3.25s WALL (       4 calls)
     sum_band     :      2.50s CPU      1.05s WALL (       4 calls)
     v_of_rho     :      0.22s CPU      0.10s WALL (       5 calls)
     newd         :      0.31s CPU      0.17s WALL (       5 calls)
     mix_rho      :      0.03s CPU      0.01s WALL (       4 calls)

     Called by c_bands:
     init_us_2    :      0.17s CPU      0.06s WALL (     126 calls)
     cegterg      :      7.80s CPU      3.18s WALL (      56 calls)

     Called by sum_band:
     sum_band:bec :      0.16s CPU      0.07s WALL (      56 calls)
     addusdens    :      0.41s CPU      0.20s WALL (       4 calls)

     Called by *egterg:
     h_psi        :      7.83s CPU      3.06s WALL (     254 calls)
     s_psi        :      0.02s CPU      0.02s WALL (     254 calls)
     g_psi        :      0.11s CPU      0.06s WALL (     184 calls)
     cdiaghg      :      0.23s CPU      0.05s WALL (     240 calls)

     Called by h_psi:
     h_psi:pot    :      7.61s CPU      2.99s WALL (     254 calls)
     h_psi:calbec :      0.06s CPU      0.02s WALL (     254 calls)
     vloc_psi     :      7.45s CPU      2.92s WALL (     254 calls)
     add_vuspsi   :      0.09s CPU      0.05s WALL (     254 calls)

     General routines
     calbec       :      0.08s CPU      0.03s WALL (     310 calls)
     fft          :      0.12s CPU      0.02s WALL (      63 calls)
     ffts         :      0.00s CPU      0.00s WALL (       9 calls)
     fftw         :      1.47s CPU      0.47s WALL (    4680 calls)
     interpolate  :      0.00s CPU      0.00s WALL (       5 calls)

     Parallel routines

     PWSCF        :     13.47s CPU      6.20s WALL


   This run was terminated on:  23: 0:36  19Aug2023            

=------------------------------------------------------------------------------=
   JOB DONE.
=------------------------------------------------------------------------------=
