
     Program PWSCF v.6.4.1 starts on 19Aug2023 at 22:58:59 

     This program is part of the open-source Quantum ESPRESSO suite
     for quantum simulation of materials; please cite
         "P. Giannozzi et al., J. Phys.:Condens. Matter 21 395502 (2009);
         "P. Giannozzi et al., J. Phys.:Condens. Matter 29 465901 (2017);
          URL http://www.quantum-espresso.org", 
     in publications or presentations arising from this work. More details at
     http://www.quantum-espresso.org/quote

     Parallel version (MPI & OpenMP), running on      16 processor cores
     Number of MPI processes:                 1
     Threads/MPI process:                    16

     MPI processes distributed on     1 nodes
     Waiting for input...
     Reading input from standard input

     Current dimensions of program PWSCF are:
     Max number of different atomic species (ntypx) = 10
     Max number of k-points (npk) =  40000
     Max angular momentum in pseudopotentials (lmaxx) =  3

     Subspace diagonalization in iterative solution of the eigenvalue problem:
     a serial algorithm will be used


     G-vector sticks info
     --------------------
     sticks:   dense  smooth     PW     G-vecs:    dense   smooth      PW
     Sum         661     301     91                43515    12953    2335



     bravais-lattice index     =            4
     lattice parameter (alat)  =       4.6200  a.u.
     unit-cell volume          =     270.2177 (a.u.)^3
     number of atoms/cell      =            4
     number of atomic types    =            1
     number of electrons       =        16.00
     number of Kohn-Sham states=           12
     kinetic-energy cutoff     =      50.0000  Ry
     charge density cutoff     =     450.0000  Ry
     convergence threshold     =      1.0E-06
     mixing beta               =       0.7000
     number of iterations used =            8  plain     mixing
     Exchange-correlation      = PBE ( 1  4  3  4 0 0)

     celldm(1)=   4.620000  celldm(2)=   0.000000  celldm(3)=   3.164151
     celldm(4)=   0.000000  celldm(5)=   0.000000  celldm(6)=   0.000000

     crystal axes: (cart. coord. in units of alat)
               a(1) = (   1.000000   0.000000   0.000000 )  
               a(2) = (  -0.500000   0.866025   0.000000 )  
               a(3) = (   0.000000   0.000000   3.164151 )  

     reciprocal axes: (cart. coord. in units 2 pi/alat)
               b(1) = (  1.000000  0.577350 -0.000000 )  
               b(2) = (  0.000000  1.154701  0.000000 )  
               b(3) = (  0.000000 -0.000000  0.316040 )  


     PseudoPot. # 1 for C  read from file:
     .\C.pbe-n-rrkjus_psl.1.0.0.UPF
     MD5 check sum: 1fdd950c42eb37d8afe3dd2f8d12311e
     Pseudo is Ultrasoft + core correction, Zval =  4.0
     Generated using "atomic" code by A. Dal Corso v.6.3MaX
     Using radial grid of 1073 points,  4 beta functions with: 
                l(1) =   0
                l(2) =   0
                l(3) =   1
                l(4) =   1
     Q(r) pseudized with 0 coefficients 


     atomic species   valence    mass     pseudopotential
        C              4.00    12.01070     C ( 1.00)

     24 Sym. Ops., with inversion, found (12 have fractional translation)



   Cartesian axes

     site n.     atom                  positions (alat units)
         1           C   tau(   1) = (   0.0000000   0.0000000   0.7910379  )
         2           C   tau(   2) = (   0.0000000   0.0000000   2.3731136  )
         3           C   tau(   3) = (  -0.0000005   0.5773506   0.7910379  )
         4           C   tau(   4) = (   0.5000005   0.2886748   2.3731136  )

     number of k points=    14  gaussian smearing, width (Ry)=  0.0100
                       cart. coord. in units 2pi/alat
        k(    1) = (   0.0000000   0.0000000   0.0000000), wk =   0.0277778
        k(    2) = (   0.0000000   0.0000000  -0.1580202), wk =   0.0277778
        k(    3) = (   0.0000000   0.1924501   0.0000000), wk =   0.1666667
        k(    4) = (   0.0000000   0.1924501  -0.1580202), wk =   0.1666667
        k(    5) = (   0.0000000   0.3849002   0.0000000), wk =   0.1666667
        k(    6) = (   0.0000000   0.3849002  -0.1580202), wk =   0.1666667
        k(    7) = (   0.0000000  -0.5773503   0.0000000), wk =   0.0833333
        k(    8) = (   0.0000000  -0.5773503  -0.1580202), wk =   0.0833333
        k(    9) = (   0.1666667   0.2886751   0.0000000), wk =   0.1666667
        k(   10) = (   0.1666667   0.2886751  -0.1580202), wk =   0.1666667
        k(   11) = (   0.1666667   0.4811252   0.0000000), wk =   0.3333333
        k(   12) = (   0.1666667   0.4811252  -0.1580202), wk =   0.3333333
        k(   13) = (   0.3333333   0.5773503   0.0000000), wk =   0.0555556
        k(   14) = (   0.3333333   0.5773503  -0.1580202), wk =   0.0555556

     Dense  grid:    43515 G-vectors     FFT dimensions: (  32,  32, 100)

     Smooth grid:    12953 G-vectors     FFT dimensions: (  24,  24,  72)

     Estimated max dynamical RAM per process >      61.67 MB

     Check: negative core charge=   -0.000001

     Initial potential from superposition of free atoms

     starting charge   15.99983, renormalised to   16.00000
     Starting wfcs are   16 randomized atomic wfcs

     total cpu time spent up to now is        1.6 secs

     Self-consistent Calculation

     iteration #  1     ecut=    50.00 Ry     beta= 0.70
     Davidson diagonalization with overlap
     ethr =  1.00E-02,  avg # of iterations =  3.3

     total cpu time spent up to now is        2.8 secs

     total energy              =     -49.63930628 Ry
     Harris-Foulkes estimate   =     -49.89253897 Ry
     estimated scf accuracy    <       0.42552294 Ry

     iteration #  2     ecut=    50.00 Ry     beta= 0.70
     Davidson diagonalization with overlap
     ethr =  2.66E-03,  avg # of iterations =  2.7

     total cpu time spent up to now is        3.9 secs

     total energy              =     -49.70565803 Ry
     Harris-Foulkes estimate   =     -49.70605726 Ry
     estimated scf accuracy    <       0.00503227 Ry

     iteration #  3     ecut=    50.00 Ry     beta= 0.70
     Davidson diagonalization with overlap
     ethr =  3.15E-05,  avg # of iterations =  5.1

     total cpu time spent up to now is        5.0 secs

     total energy              =     -49.70616103 Ry
     Harris-Foulkes estimate   =     -49.70610806 Ry
     estimated scf accuracy    <       0.00033920 Ry

     iteration #  4     ecut=    50.00 Ry     beta= 0.70
     Davidson diagonalization with overlap
     ethr =  2.12E-06,  avg # of iterations =  2.3

     total cpu time spent up to now is        6.0 secs

     total energy              =     -49.70617656 Ry
     Harris-Foulkes estimate   =     -49.70617651 Ry
     estimated scf accuracy    <       0.00000227 Ry

     iteration #  5     ecut=    50.00 Ry     beta= 0.70
     Davidson diagonalization with overlap
     ethr =  1.42E-08,  avg # of iterations =  2.4

     total cpu time spent up to now is        7.1 secs

     total energy              =     -49.70617746 Ry
     Harris-Foulkes estimate   =     -49.70617779 Ry
     estimated scf accuracy    <       0.00000124 Ry

     iteration #  6     ecut=    50.00 Ry     beta= 0.70
     Davidson diagonalization with overlap
     ethr =  7.73E-09,  avg # of iterations =  1.4

     total cpu time spent up to now is        7.9 secs

     End of self-consistent calculation

          k = 0.0000 0.0000 0.0000 (  1617 PWs)   bands (ev):

   -14.0636 -13.9741  -2.5145  -1.6319   2.6492   2.6493   2.6527   2.6528
     9.0325  13.3439  14.2038  14.2041

          k = 0.0000 0.0000-0.1580 (  1604 PWs)   bands (ev):

   -14.0193 -14.0193  -2.1010  -2.1010   2.6510   2.6510   2.6511   2.6511
    10.7351  10.7351  14.2103  14.2103

          k = 0.0000 0.1925 0.0000 (  1601 PWs)   bands (ev):

   -13.3984 -13.3133  -1.7065  -0.8521   0.3328   0.3475   1.4856   1.4940
     9.8866  14.0750  14.2151  14.2918

          k = 0.0000 0.1925-0.1580 (  1606 PWs)   bands (ev):

   -13.3563 -13.3563  -1.3055  -1.3055   0.3402   0.3402   1.4898   1.4898
    11.5450  11.5450  14.2711  14.2711

          k = 0.0000 0.3849 0.0000 (  1629 PWs)   bands (ev):

   -11.4354 -11.3626  -4.0347  -4.0002  -0.1688  -0.1577   0.6103   1.3540
    10.5507  10.9188  12.4232  13.6314

          k = 0.0000 0.3849-0.1580 (  1614 PWs)   bands (ev):

   -11.3993 -11.3993  -4.0174  -4.0174  -0.1632  -0.1632   0.9627   0.9627
    10.7087  10.7087  13.5819  13.5819

          k = 0.0000-0.5774 0.0000 (  1624 PWs)   bands (ev):

    -8.6805  -8.6497  -7.7229  -7.6990  -0.8194  -0.8076   3.1372   3.4236
     7.2526   7.6134  13.3022  13.4294

          k = 0.0000-0.5774-0.1580 (  1620 PWs)   bands (ev):

    -8.6646  -8.6646  -7.7117  -7.7117  -0.8135  -0.8135   3.2896   3.2896
     7.3868   7.3868  13.3650  13.3650

          k = 0.1667 0.2887 0.0000 (  1619 PWs)   bands (ev):

   -12.0844 -12.0075  -2.1198  -2.1068  -0.8126  -0.8032  -0.1331   0.6563
    11.5981  12.1472  12.3243  15.4235

          k = 0.1667 0.2887-0.1580 (  1604 PWs)   bands (ev):

   -12.0463 -12.0463  -2.1132  -2.1132  -0.8080  -0.8080   0.2393   0.2393
    12.2347  12.2347  13.1432  13.1432

          k = 0.1667 0.4811 0.0000 (  1617 PWs)   bands (ev):

    -9.5526  -9.4917  -5.8303  -5.7910  -2.4740  -2.4516   2.7025   3.2816
     8.1226   8.4433  14.9282  15.9146

          k = 0.1667 0.4811-0.1580 (  1618 PWs)   bands (ev):

    -9.5224  -9.5224  -5.8108  -5.8108  -2.4629  -2.4629   2.9826   2.9826
     8.2708   8.2708  15.8359  15.8359

          k = 0.3333 0.5774 0.0000 (  1605 PWs)   bands (ev):

    -7.0013  -6.9756  -6.9756  -6.9513  -5.0643  -5.0643   5.4450   5.7007
     5.7007   5.9780  16.5255  16.5255

          k = 0.3333 0.5774-0.1580 (  1596 PWs)   bands (ev):

    -6.9764  -6.9764  -6.9755  -6.9755  -5.0647  -5.0647   5.7015   5.7015
     5.7058   5.7058  16.0815  16.0815

     the Fermi energy is     5.7027 ev

!    total energy              =     -49.70617770 Ry
     Harris-Foulkes estimate   =     -49.70617769 Ry
     estimated scf accuracy    <       0.00000003 Ry

     The total energy is the sum of the following terms:

     one-electron contribution =     -23.30988878 Ry
     hartree contribution      =      18.96751447 Ry
     xc contribution           =     -18.63270539 Ry
     ewald contribution        =     -26.73015098 Ry
     smearing contrib. (-TS)   =      -0.00094701 Ry

     convergence has been achieved in   6 iterations

     init_run     :      1.34s CPU      0.91s WALL (       1 calls)
     electrons    :     16.80s CPU      6.35s WALL (       1 calls)

     Called by init_run:
     wfcinit      :      0.84s CPU      0.40s WALL (       1 calls)
     potinit      :      0.14s CPU      0.03s WALL (       1 calls)
     hinit0       :      0.36s CPU      0.44s WALL (       1 calls)

     Called by electrons:
     c_bands      :     11.83s CPU      4.53s WALL (       6 calls)
     sum_band     :      4.08s CPU      1.50s WALL (       6 calls)
     v_of_rho     :      0.31s CPU      0.12s WALL (       7 calls)
     newd         :      0.44s CPU      0.20s WALL (       7 calls)
     mix_rho      :      0.11s CPU      0.02s WALL (       6 calls)

     Called by c_bands:
     init_us_2    :      0.23s CPU      0.07s WALL (     182 calls)
     cegterg      :     11.41s CPU      4.42s WALL (      84 calls)

     Called by sum_band:
     sum_band:bec :      0.34s CPU      0.11s WALL (      84 calls)
     addusdens    :      0.61s CPU      0.27s WALL (       6 calls)

     Called by *egterg:
     h_psi        :     10.38s CPU      4.18s WALL (     338 calls)
     s_psi        :      0.11s CPU      0.03s WALL (     338 calls)
     g_psi        :      0.12s CPU      0.08s WALL (     240 calls)
     cdiaghg      :      0.27s CPU      0.07s WALL (     324 calls)

     Called by h_psi:
     h_psi:pot    :     10.05s CPU      4.06s WALL (     338 calls)
     h_psi:calbec :      0.08s CPU      0.03s WALL (     338 calls)
     vloc_psi     :      9.77s CPU      3.99s WALL (     338 calls)
     add_vuspsi   :      0.20s CPU      0.04s WALL (     338 calls)

     General routines
     calbec       :      0.14s CPU      0.04s WALL (     422 calls)
     fft          :      0.05s CPU      0.02s WALL (      89 calls)
     ffts         :      0.02s CPU      0.00s WALL (      13 calls)
     fftw         :      1.70s CPU      0.58s WALL (    6612 calls)
     interpolate  :      0.03s CPU      0.00s WALL (       7 calls)

     Parallel routines

     PWSCF        :     18.73s CPU      7.92s WALL


   This run was terminated on:  22:59: 7  19Aug2023            

=------------------------------------------------------------------------------=
   JOB DONE.
=------------------------------------------------------------------------------=
