
     Program PWSCF v.6.4.1 starts on 19Aug2023 at 22:59:13 

     This program is part of the open-source Quantum ESPRESSO suite
     for quantum simulation of materials; please cite
         "P. Giannozzi et al., J. Phys.:Condens. Matter 21 395502 (2009);
         "P. Giannozzi et al., J. Phys.:Condens. Matter 29 465901 (2017);
          URL http://www.quantum-espresso.org", 
     in publications or presentations arising from this work. More details at
     http://www.quantum-espresso.org/quote

     Parallel version (MPI & OpenMP), running on      16 processor cores
     Number of MPI processes:                 1
     Threads/MPI process:                    16

     MPI processes distributed on     1 nodes
     Waiting for input...
     Reading input from standard input

     Current dimensions of program PWSCF are:
     Max number of different atomic species (ntypx) = 10
     Max number of k-points (npk) =  40000
     Max angular momentum in pseudopotentials (lmaxx) =  3

     Subspace diagonalization in iterative solution of the eigenvalue problem:
     a serial algorithm will be used


     G-vector sticks info
     --------------------
     sticks:   dense  smooth     PW     G-vecs:    dense   smooth      PW
     Sum         673     301     91                44271    13087    2335



     bravais-lattice index     =            4
     lattice parameter (alat)  =       4.6400  a.u.
     unit-cell volume          =     273.7423 (a.u.)^3
     number of atoms/cell      =            4
     number of atomic types    =            1
     number of electrons       =        16.00
     number of Kohn-Sham states=           12
     kinetic-energy cutoff     =      50.0000  Ry
     charge density cutoff     =     450.0000  Ry
     convergence threshold     =      1.0E-06
     mixing beta               =       0.7000
     number of iterations used =            8  plain     mixing
     Exchange-correlation      = PBE ( 1  4  3  4 0 0)

     celldm(1)=   4.640000  celldm(2)=   0.000000  celldm(3)=   3.164151
     celldm(4)=   0.000000  celldm(5)=   0.000000  celldm(6)=   0.000000

     crystal axes: (cart. coord. in units of alat)
               a(1) = (   1.000000   0.000000   0.000000 )  
               a(2) = (  -0.500000   0.866025   0.000000 )  
               a(3) = (   0.000000   0.000000   3.164151 )  

     reciprocal axes: (cart. coord. in units 2 pi/alat)
               b(1) = (  1.000000  0.577350 -0.000000 )  
               b(2) = (  0.000000  1.154701  0.000000 )  
               b(3) = (  0.000000 -0.000000  0.316040 )  


     PseudoPot. # 1 for C  read from file:
     .\C.pbe-n-rrkjus_psl.1.0.0.UPF
     MD5 check sum: 1fdd950c42eb37d8afe3dd2f8d12311e
     Pseudo is Ultrasoft + core correction, Zval =  4.0
     Generated using "atomic" code by A. Dal Corso v.6.3MaX
     Using radial grid of 1073 points,  4 beta functions with: 
                l(1) =   0
                l(2) =   0
                l(3) =   1
                l(4) =   1
     Q(r) pseudized with 0 coefficients 


     atomic species   valence    mass     pseudopotential
        C              4.00    12.01070     C ( 1.00)

     24 Sym. Ops., with inversion, found (12 have fractional translation)



   Cartesian axes

     site n.     atom                  positions (alat units)
         1           C   tau(   1) = (   0.0000000   0.0000000   0.7910379  )
         2           C   tau(   2) = (   0.0000000   0.0000000   2.3731136  )
         3           C   tau(   3) = (  -0.0000005   0.5773506   0.7910379  )
         4           C   tau(   4) = (   0.5000005   0.2886748   2.3731136  )

     number of k points=    14  gaussian smearing, width (Ry)=  0.0100
                       cart. coord. in units 2pi/alat
        k(    1) = (   0.0000000   0.0000000   0.0000000), wk =   0.0277778
        k(    2) = (   0.0000000   0.0000000  -0.1580202), wk =   0.0277778
        k(    3) = (   0.0000000   0.1924501   0.0000000), wk =   0.1666667
        k(    4) = (   0.0000000   0.1924501  -0.1580202), wk =   0.1666667
        k(    5) = (   0.0000000   0.3849002   0.0000000), wk =   0.1666667
        k(    6) = (   0.0000000   0.3849002  -0.1580202), wk =   0.1666667
        k(    7) = (   0.0000000  -0.5773503   0.0000000), wk =   0.0833333
        k(    8) = (   0.0000000  -0.5773503  -0.1580202), wk =   0.0833333
        k(    9) = (   0.1666667   0.2886751   0.0000000), wk =   0.1666667
        k(   10) = (   0.1666667   0.2886751  -0.1580202), wk =   0.1666667
        k(   11) = (   0.1666667   0.4811252   0.0000000), wk =   0.3333333
        k(   12) = (   0.1666667   0.4811252  -0.1580202), wk =   0.3333333
        k(   13) = (   0.3333333   0.5773503   0.0000000), wk =   0.0555556
        k(   14) = (   0.3333333   0.5773503  -0.1580202), wk =   0.0555556

     Dense  grid:    44271 G-vectors     FFT dimensions: (  32,  32, 100)

     Smooth grid:    13087 G-vectors     FFT dimensions: (  24,  24,  72)

     Estimated max dynamical RAM per process >      62.60 MB

     Check: negative core charge=   -0.000001

     Initial potential from superposition of free atoms

     starting charge   15.99983, renormalised to   16.00000
     Starting wfcs are   16 randomized atomic wfcs

     total cpu time spent up to now is        1.6 secs

     Self-consistent Calculation

     iteration #  1     ecut=    50.00 Ry     beta= 0.70
     Davidson diagonalization with overlap
     ethr =  1.00E-02,  avg # of iterations =  3.1

     total cpu time spent up to now is        2.9 secs

     total energy              =     -49.64281042 Ry
     Harris-Foulkes estimate   =     -49.88654722 Ry
     estimated scf accuracy    <       0.41128371 Ry

     iteration #  2     ecut=    50.00 Ry     beta= 0.70
     Davidson diagonalization with overlap
     ethr =  2.57E-03,  avg # of iterations =  2.9

     total cpu time spent up to now is        3.9 secs

     total energy              =     -49.70688117 Ry
     Harris-Foulkes estimate   =     -49.70727976 Ry
     estimated scf accuracy    <       0.00498266 Ry

     iteration #  3     ecut=    50.00 Ry     beta= 0.70
     Davidson diagonalization with overlap
     ethr =  3.11E-05,  avg # of iterations =  4.8

     total cpu time spent up to now is        5.0 secs

     total energy              =     -49.70735654 Ry
     Harris-Foulkes estimate   =     -49.70730460 Ry
     estimated scf accuracy    <       0.00034058 Ry

     iteration #  4     ecut=    50.00 Ry     beta= 0.70
     Davidson diagonalization with overlap
     ethr =  2.13E-06,  avg # of iterations =  2.8

     total cpu time spent up to now is        6.0 secs

     total energy              =     -49.70737309 Ry
     Harris-Foulkes estimate   =     -49.70737343 Ry
     estimated scf accuracy    <       0.00000277 Ry

     iteration #  5     ecut=    50.00 Ry     beta= 0.70
     Davidson diagonalization with overlap
     ethr =  1.73E-08,  avg # of iterations =  2.4

     total cpu time spent up to now is        7.0 secs

     total energy              =     -49.70737428 Ry
     Harris-Foulkes estimate   =     -49.70737461 Ry
     estimated scf accuracy    <       0.00000133 Ry

     iteration #  6     ecut=    50.00 Ry     beta= 0.70
     Davidson diagonalization with overlap
     ethr =  8.34E-09,  avg # of iterations =  1.4

     total cpu time spent up to now is        7.9 secs

     End of self-consistent calculation

          k = 0.0000 0.0000 0.0000 (  1617 PWs)   bands (ev):

   -14.0901 -14.0034  -2.5507  -1.6850   2.5113   2.5114   2.5147   2.5148
     8.9290  13.1886  13.9846  13.9850

          k = 0.0000 0.0000-0.1580 (  1606 PWs)   bands (ev):

   -14.0472 -14.0472  -2.1450  -2.1450   2.5130   2.5130   2.5131   2.5131
    10.6106  10.6106  13.9910  13.9910

          k = 0.0000 0.1925 0.0000 (  1639 PWs)   bands (ev):

   -13.4301 -13.3476  -1.7512  -0.9135   0.2079   0.2223   1.3629   1.3710
     9.7767  13.9118  13.9827  14.0556

          k = 0.0000 0.1925-0.1580 (  1630 PWs)   bands (ev):

   -13.3892 -13.3892  -1.3578  -1.3578   0.2151   0.2151   1.3670   1.3670
    11.4143  11.4143  14.0356  14.0356

          k = 0.0000 0.3849 0.0000 (  1645 PWs)   bands (ev):

   -11.4827 -11.4120  -4.1288  -4.0953  -0.2721  -0.2613   0.5402   1.2685
    10.3702  10.7280  12.2917  13.3768

          k = 0.0000 0.3849-0.1580 (  1640 PWs)   bands (ev):

   -11.4477 -11.4477  -4.1121  -4.1121  -0.2667  -0.2667   0.8855   0.8855
    10.5244  10.5244  13.3483  13.3483

          k = 0.0000-0.5774 0.0000 (  1660 PWs)   bands (ev):

    -8.7678  -8.7379  -7.7713  -7.7480  -0.9155  -0.9040   3.0338   3.3142
     7.1175   7.4689  13.0421  13.1649

          k = 0.0000-0.5774-0.1580 (  1628 PWs)   bands (ev):

    -8.7524  -8.7524  -7.7603  -7.7603  -0.9098  -0.9098   3.1828   3.1828
     7.2488   7.2488  13.1029  13.1029

          k = 0.1667 0.2887 0.0000 (  1635 PWs)   bands (ev):

   -12.1263 -12.0518  -2.2349  -2.2222  -0.9079  -0.8987  -0.1948   0.5787
    11.4744  11.9387  12.1111  15.2491

          k = 0.1667 0.2887-0.1580 (  1624 PWs)   bands (ev):

   -12.0893 -12.0893  -2.2285  -2.2285  -0.9034  -0.9034   0.1703   0.1703
    12.0238  12.0239  12.9991  12.9991

          k = 0.1667 0.4811 0.0000 (  1635 PWs)   bands (ev):

    -9.6167  -9.5576  -5.9129  -5.8748  -2.5576  -2.5359   2.6078   3.1740
     7.9689   8.2808  14.7752  15.6445

          k = 0.1667 0.4811-0.1580 (  1638 PWs)   bands (ev):

    -9.5874  -9.5874  -5.8940  -5.8940  -2.5468  -2.5468   2.8817   2.8817
     8.1132   8.1132  15.6139  15.6139

          k = 0.3333 0.5774 0.0000 (  1635 PWs)   bands (ev):

    -7.0948  -7.0699  -7.0699  -7.0462  -5.1007  -5.1007   5.3180   5.5682
     5.5682   5.8391  16.3702  16.3702

          k = 0.3333 0.5774-0.1580 (  1620 PWs)   bands (ev):

    -7.0707  -7.0707  -7.0697  -7.0697  -5.1010  -5.1010   5.5689   5.5689
     5.5731   5.5731  15.9293  15.9293

     the Fermi energy is     5.5701 ev

!    total energy              =     -49.70737453 Ry
     Harris-Foulkes estimate   =     -49.70737452 Ry
     estimated scf accuracy    <       0.00000002 Ry

     The total energy is the sum of the following terms:

     one-electron contribution =     -23.47286322 Ry
     hartree contribution      =      18.97464550 Ry
     xc contribution           =     -18.59327373 Ry
     ewald contribution        =     -26.61493481 Ry
     smearing contrib. (-TS)   =      -0.00094828 Ry

     convergence has been achieved in   6 iterations

     init_run     :      1.59s CPU      0.92s WALL (       1 calls)
     electrons    :     17.86s CPU      6.28s WALL (       1 calls)

     Called by init_run:
     wfcinit      :      1.09s CPU      0.41s WALL (       1 calls)
     potinit      :      0.12s CPU      0.03s WALL (       1 calls)
     hinit0       :      0.34s CPU      0.44s WALL (       1 calls)

     Called by electrons:
     c_bands      :     13.12s CPU      4.47s WALL (       6 calls)
     sum_band     :      4.09s CPU      1.49s WALL (       6 calls)
     v_of_rho     :      0.27s CPU      0.12s WALL (       7 calls)
     newd         :      0.34s CPU      0.21s WALL (       7 calls)
     mix_rho      :      0.05s CPU      0.02s WALL (       6 calls)

     Called by c_bands:
     init_us_2    :      0.20s CPU      0.07s WALL (     182 calls)
     cegterg      :     12.81s CPU      4.36s WALL (      84 calls)

     Called by sum_band:
     sum_band:bec :      0.22s CPU      0.10s WALL (      84 calls)
     addusdens    :      0.66s CPU      0.28s WALL (       6 calls)

     Called by *egterg:
     h_psi        :     12.00s CPU      4.13s WALL (     340 calls)
     s_psi        :      0.08s CPU      0.03s WALL (     340 calls)
     g_psi        :      0.22s CPU      0.09s WALL (     242 calls)
     cdiaghg      :      0.09s CPU      0.04s WALL (     326 calls)

     Called by h_psi:
     h_psi:pot    :     11.75s CPU      4.01s WALL (     340 calls)
     h_psi:calbec :      0.11s CPU      0.04s WALL (     340 calls)
     vloc_psi     :     11.52s CPU      3.94s WALL (     340 calls)
     add_vuspsi   :      0.09s CPU      0.04s WALL (     340 calls)

     General routines
     calbec       :      0.12s CPU      0.05s WALL (     424 calls)
     fft          :      0.02s CPU      0.02s WALL (      89 calls)
     ffts         :      0.00s CPU      0.00s WALL (      13 calls)
     fftw         :      2.25s CPU      0.57s WALL (    6620 calls)
     interpolate  :      0.02s CPU      0.01s WALL (       7 calls)

     Parallel routines

     PWSCF        :     20.03s CPU      7.90s WALL


   This run was terminated on:  22:59:21  19Aug2023            

=------------------------------------------------------------------------------=
   JOB DONE.
=------------------------------------------------------------------------------=
