
     Program PWSCF v.6.4.1 starts on 19Aug2023 at 22:59:49 

     This program is part of the open-source Quantum ESPRESSO suite
     for quantum simulation of materials; please cite
         "P. Giannozzi et al., J. Phys.:Condens. Matter 21 395502 (2009);
         "P. Giannozzi et al., J. Phys.:Condens. Matter 29 465901 (2017);
          URL http://www.quantum-espresso.org", 
     in publications or presentations arising from this work. More details at
     http://www.quantum-espresso.org/quote

     Parallel version (MPI & OpenMP), running on      16 processor cores
     Number of MPI processes:                 1
     Threads/MPI process:                    16

     MPI processes distributed on     1 nodes
     Waiting for input...
     Reading input from standard input

     Current dimensions of program PWSCF are:
     Max number of different atomic species (ntypx) = 10
     Max number of k-points (npk) =  40000
     Max angular momentum in pseudopotentials (lmaxx) =  3

     Subspace diagonalization in iterative solution of the eigenvalue problem:
     a serial algorithm will be used


     G-vector sticks info
     --------------------
     sticks:   dense  smooth     PW     G-vecs:    dense   smooth      PW
     Sum         673     301     91                45255    13435    2395



     bravais-lattice index     =            4
     lattice parameter (alat)  =       4.6800  a.u.
     unit-cell volume          =     280.8830 (a.u.)^3
     number of atoms/cell      =            4
     number of atomic types    =            1
     number of electrons       =        16.00
     number of Kohn-Sham states=           12
     kinetic-energy cutoff     =      50.0000  Ry
     charge density cutoff     =     450.0000  Ry
     convergence threshold     =      1.0E-06
     mixing beta               =       0.7000
     number of iterations used =            8  plain     mixing
     Exchange-correlation      = PBE ( 1  4  3  4 0 0)

     celldm(1)=   4.680000  celldm(2)=   0.000000  celldm(3)=   3.164151
     celldm(4)=   0.000000  celldm(5)=   0.000000  celldm(6)=   0.000000

     crystal axes: (cart. coord. in units of alat)
               a(1) = (   1.000000   0.000000   0.000000 )  
               a(2) = (  -0.500000   0.866025   0.000000 )  
               a(3) = (   0.000000   0.000000   3.164151 )  

     reciprocal axes: (cart. coord. in units 2 pi/alat)
               b(1) = (  1.000000  0.577350 -0.000000 )  
               b(2) = (  0.000000  1.154701  0.000000 )  
               b(3) = (  0.000000 -0.000000  0.316040 )  


     PseudoPot. # 1 for C  read from file:
     .\C.pbe-n-rrkjus_psl.1.0.0.UPF
     MD5 check sum: 1fdd950c42eb37d8afe3dd2f8d12311e
     Pseudo is Ultrasoft + core correction, Zval =  4.0
     Generated using "atomic" code by A. Dal Corso v.6.3MaX
     Using radial grid of 1073 points,  4 beta functions with: 
                l(1) =   0
                l(2) =   0
                l(3) =   1
                l(4) =   1
     Q(r) pseudized with 0 coefficients 


     atomic species   valence    mass     pseudopotential
        C              4.00    12.01070     C ( 1.00)

     24 Sym. Ops., with inversion, found (12 have fractional translation)



   Cartesian axes

     site n.     atom                  positions (alat units)
         1           C   tau(   1) = (   0.0000000   0.0000000   0.7910379  )
         2           C   tau(   2) = (   0.0000000   0.0000000   2.3731136  )
         3           C   tau(   3) = (  -0.0000005   0.5773506   0.7910379  )
         4           C   tau(   4) = (   0.5000005   0.2886748   2.3731136  )

     number of k points=    14  gaussian smearing, width (Ry)=  0.0100
                       cart. coord. in units 2pi/alat
        k(    1) = (   0.0000000   0.0000000   0.0000000), wk =   0.0277778
        k(    2) = (   0.0000000   0.0000000  -0.1580202), wk =   0.0277778
        k(    3) = (   0.0000000   0.1924501   0.0000000), wk =   0.1666667
        k(    4) = (   0.0000000   0.1924501  -0.1580202), wk =   0.1666667
        k(    5) = (   0.0000000   0.3849002   0.0000000), wk =   0.1666667
        k(    6) = (   0.0000000   0.3849002  -0.1580202), wk =   0.1666667
        k(    7) = (   0.0000000  -0.5773503   0.0000000), wk =   0.0833333
        k(    8) = (   0.0000000  -0.5773503  -0.1580202), wk =   0.0833333
        k(    9) = (   0.1666667   0.2886751   0.0000000), wk =   0.1666667
        k(   10) = (   0.1666667   0.2886751  -0.1580202), wk =   0.1666667
        k(   11) = (   0.1666667   0.4811252   0.0000000), wk =   0.3333333
        k(   12) = (   0.1666667   0.4811252  -0.1580202), wk =   0.3333333
        k(   13) = (   0.3333333   0.5773503   0.0000000), wk =   0.0555556
        k(   14) = (   0.3333333   0.5773503  -0.1580202), wk =   0.0555556

     Dense  grid:    45255 G-vectors     FFT dimensions: (  32,  32, 100)

     Smooth grid:    13435 G-vectors     FFT dimensions: (  24,  24,  72)

     Estimated max dynamical RAM per process >      63.85 MB

     Check: negative core charge=   -0.000001

     Initial potential from superposition of free atoms

     starting charge   15.99983, renormalised to   16.00000
     Starting wfcs are   16 randomized atomic wfcs

     total cpu time spent up to now is        3.9 secs

     Self-consistent Calculation

     iteration #  1     ecut=    50.00 Ry     beta= 0.70
     Davidson diagonalization with overlap
     ethr =  1.00E-02,  avg # of iterations =  2.9

     total cpu time spent up to now is        5.5 secs

     total energy              =     -49.64766198 Ry
     Harris-Foulkes estimate   =     -49.87297631 Ry
     estimated scf accuracy    <       0.38358798 Ry

     iteration #  2     ecut=    50.00 Ry     beta= 0.70
     Davidson diagonalization with overlap
     ethr =  2.40E-03,  avg # of iterations =  2.5

     total cpu time spent up to now is        6.9 secs

     total energy              =     -49.70703543 Ry
     Harris-Foulkes estimate   =     -49.70740750 Ry
     estimated scf accuracy    <       0.00487804 Ry

     iteration #  3     ecut=    50.00 Ry     beta= 0.70
     Davidson diagonalization with overlap
     ethr =  3.05E-05,  avg # of iterations =  4.9

     total cpu time spent up to now is        8.3 secs

     total energy              =     -49.70747582 Ry
     Harris-Foulkes estimate   =     -49.70742546 Ry
     estimated scf accuracy    <       0.00033678 Ry

     iteration #  4     ecut=    50.00 Ry     beta= 0.70
     Davidson diagonalization with overlap
     ethr =  2.10E-06,  avg # of iterations =  2.8

     total cpu time spent up to now is        9.6 secs

     total energy              =     -49.70749324 Ry
     Harris-Foulkes estimate   =     -49.70749303 Ry
     estimated scf accuracy    <       0.00000169 Ry

     iteration #  5     ecut=    50.00 Ry     beta= 0.70
     Davidson diagonalization with overlap
     ethr =  1.05E-08,  avg # of iterations =  2.7

     total cpu time spent up to now is       11.1 secs

     total energy              =     -49.70749399 Ry
     Harris-Foulkes estimate   =     -49.70749433 Ry
     estimated scf accuracy    <       0.00000123 Ry

     iteration #  6     ecut=    50.00 Ry     beta= 0.70
     Davidson diagonalization with overlap
     ethr =  7.71E-09,  avg # of iterations =  1.6

     total cpu time spent up to now is       12.2 secs

     End of self-consistent calculation

          k = 0.0000 0.0000 0.0000 (  1653 PWs)   bands (ev):

   -14.1408 -14.0594  -2.6218  -1.7890   2.2421   2.2422   2.2454   2.2455
     8.7264  12.8843  13.5550  13.5552

          k = 0.0000 0.0000-0.1580 (  1666 PWs)   bands (ev):

   -14.1005 -14.1005  -2.2311  -2.2311   2.2438   2.2438   2.2438   2.2438
    10.3668  10.3668  13.5611  13.5612

          k = 0.0000 0.1925 0.0000 (  1687 PWs)   bands (ev):

   -13.4909 -13.4134  -1.8390  -1.0336  -0.0361  -0.0224   1.1234   1.1312
     9.5614  13.5254  13.5912  13.5917

          k = 0.0000 0.1925-0.1580 (  1676 PWs)   bands (ev):

   -13.4525 -13.4525  -1.4603  -1.4603  -0.0292  -0.0292   1.1273   1.1273
    11.1582  11.1582  13.5725  13.5725

          k = 0.0000 0.3849 0.0000 (  1675 PWs)   bands (ev):

   -11.5743 -11.5079  -4.3124  -4.2807  -0.4736  -0.4633   0.4026   1.1010
    10.0156  10.3535  12.0332  12.8768

          k = 0.0000 0.3849-0.1580 (  1682 PWs)   bands (ev):

   -11.5414 -11.5414  -4.2966  -4.2966  -0.4684  -0.4684   0.7341   0.7341
    10.1624  10.1624  12.8742  12.8742

          k = 0.0000-0.5774 0.0000 (  1684 PWs)   bands (ev):

    -8.9371  -8.9091  -7.8658  -7.8438  -1.1029  -1.0919   2.8309   3.0997
     6.8518   7.1852  12.5317  12.6463

          k = 0.0000-0.5774-0.1580 (  1688 PWs)   bands (ev):

    -8.9228  -8.9228  -7.8554  -7.8554  -1.0974  -1.0974   2.9734   2.9734
     6.9775   6.9775  12.5885  12.5885

          k = 0.1667 0.2887 0.0000 (  1687 PWs)   bands (ev):

   -12.2074 -12.1373  -2.4599  -2.4478  -1.0936  -1.0848  -0.3158   0.4266
    11.2320  11.5296  11.6931  14.9076

          k = 0.1667 0.2887-0.1580 (  1674 PWs)   bands (ev):

   -12.1726 -12.1726  -2.4538  -2.4538  -1.0893  -1.0893   0.0351   0.0351
    11.6104  11.6104  12.7169  12.7169

          k = 0.1667 0.4811 0.0000 (  1671 PWs)   bands (ev):

    -9.7416  -9.6862  -6.0741  -6.0385  -2.7195  -2.6991   2.4218   2.9632
     7.6671   7.9621  14.4739  15.1134

          k = 0.1667 0.4811-0.1580 (  1670 PWs)   bands (ev):

    -9.7141  -9.7141  -6.0564  -6.0564  -2.7094  -2.7094   2.6840   2.6840
     7.8039   7.8039  15.1365  15.1365

          k = 0.3333 0.5774 0.0000 (  1653 PWs)   bands (ev):

    -7.2768  -7.2532  -7.2532  -7.2309  -5.1714  -5.1714   5.0688   5.3084
     5.3084   5.5670  16.0657  16.0657

          k = 0.3333 0.5774-0.1580 (  1692 PWs)   bands (ev):

    -7.2541  -7.2541  -7.2531  -7.2531  -5.1718  -5.1718   5.3089   5.3089
     5.3129   5.3129  15.6305  15.6305

     the Fermi energy is     5.3102 ev

!    total energy              =     -49.70749422 Ry
     Harris-Foulkes estimate   =     -49.70749421 Ry
     estimated scf accuracy    <       0.00000002 Ry

     The total energy is the sum of the following terms:

     one-electron contribution =     -23.79241353 Ry
     hartree contribution      =      18.98904414 Ry
     xc contribution           =     -18.51571681 Ry
     ewald contribution        =     -26.38745673 Ry
     smearing contrib. (-TS)   =      -0.00095129 Ry

     convergence has been achieved in   6 iterations

     init_run     :      1.42s CPU      1.24s WALL (       1 calls)
     electrons    :     12.70s CPU      8.37s WALL (       1 calls)

     Called by init_run:
     wfcinit      :      0.81s CPU      0.55s WALL (       1 calls)
     potinit      :      0.17s CPU      0.12s WALL (       1 calls)
     hinit0       :      0.30s CPU      0.47s WALL (       1 calls)

     Called by electrons:
     c_bands      :      8.86s CPU      6.01s WALL (       6 calls)
     sum_band     :      2.97s CPU      1.93s WALL (       6 calls)
     v_of_rho     :      0.42s CPU      0.23s WALL (       7 calls)
     newd         :      0.56s CPU      0.34s WALL (       7 calls)
     mix_rho      :      0.11s CPU      0.02s WALL (       6 calls)

     Called by c_bands:
     init_us_2    :      0.22s CPU      0.09s WALL (     182 calls)
     cegterg      :      8.42s CPU      5.88s WALL (      84 calls)

     Called by sum_band:
     sum_band:bec :      0.22s CPU      0.13s WALL (      84 calls)
     addusdens    :      0.34s CPU      0.35s WALL (       6 calls)

     Called by *egterg:
     h_psi        :      7.83s CPU      5.57s WALL (     341 calls)
     s_psi        :      0.03s CPU      0.04s WALL (     341 calls)
     g_psi        :      0.22s CPU      0.09s WALL (     243 calls)
     cdiaghg      :      0.12s CPU      0.08s WALL (     327 calls)

     Called by h_psi:
     h_psi:pot    :      7.72s CPU      5.41s WALL (     341 calls)
     h_psi:calbec :      0.11s CPU      0.05s WALL (     341 calls)
     vloc_psi     :      7.47s CPU      5.30s WALL (     341 calls)
     add_vuspsi   :      0.14s CPU      0.06s WALL (     341 calls)

     General routines
     calbec       :      0.16s CPU      0.07s WALL (     425 calls)
     fft          :      0.06s CPU      0.07s WALL (      89 calls)
     ffts         :      0.00s CPU      0.00s WALL (      13 calls)
     fftw         :      1.22s CPU      0.90s WALL (    6660 calls)
     interpolate  :      0.00s CPU      0.01s WALL (       7 calls)

     Parallel routines

     PWSCF        :     15.78s CPU     12.24s WALL


   This run was terminated on:  23: 0: 1  19Aug2023            

=------------------------------------------------------------------------------=
   JOB DONE.
=------------------------------------------------------------------------------=
