
     Program PWSCF v.7.0 starts on 25Aug2023 at  0:28:17 

     This program is part of the open-source Quantum ESPRESSO suite
     for quantum simulation of materials; please cite
         "P. Giannozzi et al., J. Phys.:Condens. Matter 21 395502 (2009);
         "P. Giannozzi et al., J. Phys.:Condens. Matter 29 465901 (2017);
         "P. Giannozzi et al., J. Chem. Phys. 152 154105 (2020);
          URL http://www.quantum-espresso.org", 
     in publications or presentations arising from this work. More details at
     http://www.quantum-espresso.org/quote

     Serial version
     6272 MiB available memory on the printing compute node when the environment starts

     Waiting for input...
     Reading input from standard input

     Current dimensions of program PWSCF are:
     Max number of different atomic species (ntypx) = 10
     Max number of k-points (npk) =  40000
     Max angular momentum in pseudopotentials (lmaxx) =  4

     G-vector sticks info
     --------------------
     sticks:   dense  smooth     PW     G-vecs:    dense   smooth      PW
     Sum         241     241     85                18211    18211    3425

     Using Slab Decomposition



     bravais-lattice index     =            4
     lattice parameter (alat)  =       4.6561  a.u.
     unit-cell volume          =     532.1899 (a.u.)^3
     number of atoms/cell      =            2
     number of atomic types    =            1
     number of electrons       =         8.00
     number of Kohn-Sham states=            8
     kinetic-energy cutoff     =      40.0000  Ry
     charge density cutoff     =     160.0000  Ry
     scf convergence threshold =      1.0E-06
     mixing beta               =       0.7000
     number of iterations used =            8  plain     mixing
     Exchange-correlation= PBE
                           (   1   4   3   4   0   0   0)

     celldm(1)=   4.656107  celldm(2)=   0.000000  celldm(3)=   6.087896
     celldm(4)=   0.000000  celldm(5)=   0.000000  celldm(6)=   0.000000

     crystal axes: (cart. coord. in units of alat)
               a(1) = (   1.000000   0.000000   0.000000 )  
               a(2) = (  -0.500000   0.866025   0.000000 )  
               a(3) = (   0.000000   0.000000   6.087896 )  

     reciprocal axes: (cart. coord. in units 2 pi/alat)
               b(1) = (  1.000000  0.577350 -0.000000 )  
               b(2) = (  0.000000  1.154701  0.000000 )  
               b(3) = (  0.000000 -0.000000  0.164260 )  


     PseudoPot. # 1 for C  read from file:
     ../pseudo/C.pbe-n-rrkjus_psl.0.1.UPF
     MD5 check sum: 96a6a315177d77e6c95bf6fd3870f9e3
     Pseudo is Ultrasoft + core correction, Zval =  4.0
     Generated using &quot;atomic&quot; code by A. Dal Corso  v.6.3MaX
     Using radial grid of 1073 points,  4 beta functions with: 
                l(1) =   0
                l(2) =   0
                l(3) =   1
                l(4) =   1
     Q(r) pseudized with 0 coefficients 


     atomic species   valence    mass     pseudopotential
        C              4.00    12.01070     C ( 1.00)

     24 Sym. Ops., with inversion, found



   Cartesian axes

     site n.     atom                  positions (alat units)
         1           C   tau(   1) = (   0.0000000   0.5773503   3.0439478  )
         2           C   tau(   2) = (   0.5000000   0.2886751   3.0439478  )

     number of k points=    19  Fermi-Dirac smearing, width (Ry)=  0.0200
                       cart. coord. in units 2pi/alat
        k(    1) = (   0.0000000   0.0000000   0.0000000), wk =   0.0138889
        k(    2) = (   0.0000000   0.0962250   0.0000000), wk =   0.0833333
        k(    3) = (   0.0000000   0.1924501   0.0000000), wk =   0.0833333
        k(    4) = (   0.0000000   0.2886751   0.0000000), wk =   0.0833333
        k(    5) = (   0.0000000   0.3849002   0.0000000), wk =   0.0833333
        k(    6) = (   0.0000000   0.4811252   0.0000000), wk =   0.0833333
        k(    7) = (   0.0000000  -0.5773503   0.0000000), wk =   0.0416667
        k(    8) = (   0.0833333   0.1443376   0.0000000), wk =   0.0833333
        k(    9) = (   0.0833333   0.2405626   0.0000000), wk =   0.1666667
        k(   10) = (   0.0833333   0.3367877   0.0000000), wk =   0.1666667
        k(   11) = (   0.0833333   0.4330127   0.0000000), wk =   0.1666667
        k(   12) = (   0.0833333   0.5292377   0.0000000), wk =   0.1666667
        k(   13) = (   0.1666667   0.2886751   0.0000000), wk =   0.0833333
        k(   14) = (   0.1666667   0.3849002   0.0000000), wk =   0.1666667
        k(   15) = (   0.1666667   0.4811252   0.0000000), wk =   0.1666667
        k(   16) = (   0.1666667   0.5773503   0.0000000), wk =   0.0833333
        k(   17) = (   0.2500000   0.4330127   0.0000000), wk =   0.0833333
        k(   18) = (   0.2500000   0.5292377   0.0000000), wk =   0.1666667
        k(   19) = (   0.3333333   0.5773503   0.0000000), wk =   0.0277778

     Dense  grid:    18211 G-vectors     FFT dimensions: (  20,  20, 120)

     Estimated max dynamical RAM per process >      29.77 MB

     Check: negative core charge=   -0.000016

     Initial potential from superposition of free atoms

     starting charge       7.9999, renormalised to       8.0000

     negative rho (up, down):  1.028E-04 0.000E+00
     Starting wfcs are    8 randomized atomic wfcs

     total cpu time spent up to now is        0.6 secs

     Self-consistent Calculation

     iteration #  1     ecut=    40.00 Ry     beta= 0.70
     Davidson diagonalization with overlap
     ethr =  1.00E-02,  avg # of iterations =  7.9

     negative rho (up, down):  1.124E-05 0.000E+00

     total cpu time spent up to now is        1.3 secs

     total energy              =     -23.85794618 Ry
     estimated scf accuracy    <       0.11073067 Ry

     iteration #  2     ecut=    40.00 Ry     beta= 0.70
     Davidson diagonalization with overlap
     ethr =  1.38E-03,  avg # of iterations =  5.5

     negative rho (up, down):  3.688E-04 0.000E+00

     total cpu time spent up to now is        1.8 secs

     total energy              =     -23.89846762 Ry
     estimated scf accuracy    <       0.01504107 Ry

     iteration #  3     ecut=    40.00 Ry     beta= 0.70
     Davidson diagonalization with overlap
     c_bands:  1 eigenvalues not converged
     c_bands:  1 eigenvalues not converged
     ethr =  1.88E-04,  avg # of iterations = 14.5

     negative rho (up, down):  3.291E-04 0.000E+00

     total cpu time spent up to now is        2.8 secs

     total energy              =     -23.91000552 Ry
     estimated scf accuracy    <       0.00546855 Ry

     iteration #  4     ecut=    40.00 Ry     beta= 0.70
     Davidson diagonalization with overlap
     ethr =  6.84E-05,  avg # of iterations =  4.3

     negative rho (up, down):  5.179E-04 0.000E+00

     total cpu time spent up to now is        3.3 secs

     total energy              =     -23.90894835 Ry
     estimated scf accuracy    <       0.00263699 Ry

     iteration #  5     ecut=    40.00 Ry     beta= 0.70
     Davidson diagonalization with overlap
     c_bands:  1 eigenvalues not converged
     ethr =  3.30E-05,  avg # of iterations =  6.6

     negative rho (up, down):  4.333E-04 0.000E+00

     total cpu time spent up to now is        3.9 secs

     total energy              =     -23.90957873 Ry
     estimated scf accuracy    <       0.00131639 Ry

     iteration #  6     ecut=    40.00 Ry     beta= 0.70
     Davidson diagonalization with overlap
     ethr =  1.65E-05,  avg # of iterations =  3.4

     negative rho (up, down):  4.164E-04 0.000E+00

     total cpu time spent up to now is        4.3 secs

     total energy              =     -23.90965396 Ry
     estimated scf accuracy    <       0.00008276 Ry

     iteration #  7     ecut=    40.00 Ry     beta= 0.70
     Davidson diagonalization with overlap
     c_bands:  1 eigenvalues not converged
     c_bands:  1 eigenvalues not converged
     c_bands:  1 eigenvalues not converged
     c_bands:  1 eigenvalues not converged
     ethr =  1.03E-06,  avg # of iterations = 11.8

     negative rho (up, down):  4.218E-04 0.000E+00

     total cpu time spent up to now is        5.1 secs

     total energy              =     -23.90979029 Ry
     estimated scf accuracy    <       0.00000931 Ry

     iteration #  8     ecut=    40.00 Ry     beta= 0.70
     Davidson diagonalization with overlap
     c_bands:  1 eigenvalues not converged
     c_bands:  1 eigenvalues not converged
     ethr =  1.16E-07,  avg # of iterations =  5.5

     negative rho (up, down):  4.241E-04 0.000E+00

     total cpu time spent up to now is        5.6 secs

     total energy              =     -23.90979767 Ry
     estimated scf accuracy    <       0.00000207 Ry

     iteration #  9     ecut=    40.00 Ry     beta= 0.70
     Davidson diagonalization with overlap
     ethr =  2.59E-08,  avg # of iterations =  4.5

     negative rho (up, down):  4.227E-04 0.000E+00

     total cpu time spent up to now is        6.1 secs

     total energy              =     -23.90979820 Ry
     estimated scf accuracy    <       0.00000167 Ry

     iteration # 10     ecut=    40.00 Ry     beta= 0.70
     Davidson diagonalization with overlap
     ethr =  2.09E-08,  avg # of iterations =  1.4

     negative rho (up, down):  4.220E-04 0.000E+00

     total cpu time spent up to now is        6.5 secs

     End of self-consistent calculation

          k = 0.0000 0.0000 0.0000 (  2289 PWs)   bands (ev):

   -21.2533  -9.3544  -4.7943  -4.7943   1.1572   1.8995   2.1256   4.1393

          k = 0.0000 0.0962 0.0000 (  2286 PWs)   bands (ev):

   -21.0894  -9.1582  -5.4432  -5.1328   1.3831   2.1262   2.3513   4.3627

          k = 0.0000 0.1925 0.0000 (  2280 PWs)   bands (ev):

   -20.5994  -8.5747  -7.0776  -5.9253   2.0607   2.8054   3.0286   5.0310

          k = 0.0000 0.2887 0.0000 (  2278 PWs)   bands (ev):

   -19.7890  -9.1733  -7.6231  -6.8054   3.1884   3.9276   4.1564   5.5164

          k = 0.0000 0.3849 0.0000 (  2272 PWs)   bands (ev):

   -18.6703 -11.3749  -7.5390  -6.3538   3.1950   4.7603   5.5361   5.7114

          k = 0.0000 0.4811 0.0000 (  2282 PWs)   bands (ev):

   -17.2742 -13.4745  -8.0122  -4.9299   1.0587   5.7597   6.7907   7.5523

          k = 0.0000-0.5774 0.0000 (  2260 PWs)   bands (ev):

   -16.0075 -14.9835  -8.1746  -4.0845  -0.0402   5.6824   9.1641   9.2701

          k = 0.0833 0.1443 0.0000 (  2291 PWs)   bands (ev):

   -20.7625  -8.7682  -6.4746  -5.8101   1.8350   2.5793   2.8030   4.8088

          k = 0.0833 0.2406 0.0000 (  2281 PWs)   bands (ev):

   -20.1122  -8.1816  -7.9995  -6.8080   2.7382   3.4827   3.7062   5.6901

          k = 0.0833 0.3368 0.0000 (  2266 PWs)   bands (ev):

   -19.1475 -10.2526  -7.6942  -6.8826   4.0896   4.2010   4.8655   5.0593

          k = 0.0833 0.4330 0.0000 (  2279 PWs)   bands (ev):

   -17.8871 -12.3743  -8.3291  -5.5018   2.0069   5.8778   6.5738   6.6422

          k = 0.0833 0.5292 0.0000 (  2273 PWs)   bands (ev):

   -16.4066 -14.3163  -8.6576  -4.1914   0.2365   6.4188   8.1159   9.1110

          k = 0.1667 0.2887 0.0000 (  2273 PWs)   bands (ev):

   -19.3077  -9.5095  -8.1697  -7.0615   3.8654   4.6077   4.6671   4.8353

          k = 0.1667 0.3849 0.0000 (  2279 PWs)   bands (ev):

   -18.1999 -11.2355  -9.2254  -5.8074   2.7172   5.4374   6.1691   6.4123

          k = 0.1667 0.4811 0.0000 (  2273 PWs)   bands (ev):

   -16.8237 -13.1461  -9.8008  -4.3794   0.8030   7.4376   8.1186   8.2899

          k = 0.1667 0.5774 0.0000 (  2254 PWs)   bands (ev):

   -15.5868 -14.5834  -9.9854  -3.4858  -0.2664   8.2237   9.7607   9.8912

          k = 0.2500 0.4330 0.0000 (  2269 PWs)   bands (ev):

   -16.9716 -12.2685 -10.7094  -4.4636   1.1013   7.2186   7.8504   8.2067

          k = 0.2500 0.5292 0.0000 (  2253 PWs)   bands (ev):

   -15.5486 -13.6904 -11.4164  -3.0766  -0.4204   9.0964   9.3791  10.3877

          k = 0.3333 0.5774 0.0000 (  2259 PWs)   bands (ev):

   -14.3305 -14.3305 -12.3153  -1.7194  -1.7194   8.8805  11.1066  11.1073

     the Fermi energy is    -1.7310 ev

!    total energy              =     -23.90979830 Ry
     estimated scf accuracy    <       0.00000008 Ry
     smearing contrib. (-TS)   =      -0.00117960 Ry
     internal energy E=F+TS    =     -23.90861870 Ry

     The total energy is F=E-TS. E is the sum of the following terms:
     one-electron contribution =    -157.39398538 Ry
     hartree contribution      =      80.15928575 Ry
     xc contribution           =      -8.30356616 Ry
     ewald contribution        =      61.62964709 Ry

     convergence has been achieved in  10 iterations

     Writing all to output data dir ../tmp/gr.save/

     init_run     :      0.46s CPU      0.48s WALL (       1 calls)
     electrons    :      5.01s CPU      5.98s WALL (       1 calls)

     Called by init_run:
     wfcinit      :      0.20s CPU      0.20s WALL (       1 calls)
     potinit      :      0.02s CPU      0.03s WALL (       1 calls)
     hinit0       :      0.23s CPU      0.23s WALL (       1 calls)

     Called by electrons:
     c_bands      :      4.31s CPU      5.08s WALL (      10 calls)
     sum_band     :      0.50s CPU      0.51s WALL (      10 calls)
     v_of_rho     :      0.12s CPU      0.13s WALL (      11 calls)
     newd         :      0.07s CPU      0.07s WALL (      11 calls)
     mix_rho      :      0.02s CPU      0.02s WALL (      10 calls)

     Called by c_bands:
     init_us_2    :      0.09s CPU      0.09s WALL (     399 calls)
     init_us_2:cp :      0.08s CPU      0.09s WALL (     399 calls)
     cegterg      :      4.10s CPU      4.23s WALL (     190 calls)

     Called by *egterg:
     cdiaghg      :      0.07s CPU      0.07s WALL (    1433 calls)
     h_psi        :      3.14s CPU      3.25s WALL (    1452 calls)
     s_psi        :      0.17s CPU      0.17s WALL (    1452 calls)
     g_psi        :      0.03s CPU      0.03s WALL (    1243 calls)

     Called by h_psi:
     h_psi:calbec :      0.18s CPU      0.18s WALL (    1452 calls)
     vloc_psi     :      2.77s CPU      2.87s WALL (    1452 calls)
     add_vuspsi   :      0.17s CPU      0.18s WALL (    1452 calls)

     General routines
     calbec       :      0.22s CPU      0.23s WALL (    1642 calls)
     fft          :      0.20s CPU      0.20s WALL (     121 calls)
     ffts         :      0.00s CPU      0.00s WALL (      10 calls)
     fftw         :      2.77s CPU      2.87s WALL (   13458 calls)


     PWSCF        :      5.52s CPU      7.15s WALL


   This run was terminated on:   0:28:24  25Aug2023            

=------------------------------------------------------------------------------=
   JOB DONE.
=------------------------------------------------------------------------------=
