
     Program PWSCF v.7.0 starts on 25Aug2023 at  0:28:24 

     This program is part of the open-source Quantum ESPRESSO suite
     for quantum simulation of materials; please cite
         "P. Giannozzi et al., J. Phys.:Condens. Matter 21 395502 (2009);
         "P. Giannozzi et al., J. Phys.:Condens. Matter 29 465901 (2017);
         "P. Giannozzi et al., J. Chem. Phys. 152 154105 (2020);
          URL http://www.quantum-espresso.org", 
     in publications or presentations arising from this work. More details at
     http://www.quantum-espresso.org/quote

     Serial version
     6272 MiB available memory on the printing compute node when the environment starts

     Waiting for input...
     Reading input from standard input

     Current dimensions of program PWSCF are:
     Max number of different atomic species (ntypx) = 10
     Max number of k-points (npk) =  40000
     Max angular momentum in pseudopotentials (lmaxx) =  4

     G-vector sticks info
     --------------------
     sticks:   dense  smooth     PW     G-vecs:    dense   smooth      PW
     Sum         241     241     85                18211    18211    3425

     Using Slab Decomposition



     bravais-lattice index     =            4
     lattice parameter (alat)  =       4.6561  a.u.
     unit-cell volume          =     532.1899 (a.u.)^3
     number of atoms/cell      =            2
     number of atomic types    =            1
     number of electrons       =         8.00
     number of Kohn-Sham states=            8
     kinetic-energy cutoff     =      40.0000  Ry
     charge density cutoff     =     160.0000  Ry
     scf convergence threshold =      1.0E-06
     mixing beta               =       0.7000
     number of iterations used =            8  plain     mixing
     Exchange-correlation= PBE
                           (   1   4   3   4   0   0   0)

     celldm(1)=   4.656107  celldm(2)=   0.000000  celldm(3)=   6.087896
     celldm(4)=   0.000000  celldm(5)=   0.000000  celldm(6)=   0.000000

     crystal axes: (cart. coord. in units of alat)
               a(1) = (   1.000000   0.000000   0.000000 )  
               a(2) = (  -0.500000   0.866025   0.000000 )  
               a(3) = (   0.000000   0.000000   6.087896 )  

     reciprocal axes: (cart. coord. in units 2 pi/alat)
               b(1) = (  1.000000  0.577350 -0.000000 )  
               b(2) = (  0.000000  1.154701  0.000000 )  
               b(3) = (  0.000000 -0.000000  0.164260 )  


     PseudoPot. # 1 for C  read from file:
     ../pseudo/C.pbe-n-rrkjus_psl.0.1.UPF
     MD5 check sum: 96a6a315177d77e6c95bf6fd3870f9e3
     Pseudo is Ultrasoft + core correction, Zval =  4.0
     Generated using &quot;atomic&quot; code by A. Dal Corso  v.6.3MaX
     Using radial grid of 1073 points,  4 beta functions with: 
                l(1) =   0
                l(2) =   0
                l(3) =   1
                l(4) =   1
     Q(r) pseudized with 0 coefficients 


     atomic species   valence    mass     pseudopotential
        C              4.00    12.01070     C ( 1.00)

     24 Sym. Ops., with inversion, found



   Cartesian axes

     site n.     atom                  positions (alat units)
         1           C   tau(   1) = (   0.0000000   0.5773503   3.0439478  )
         2           C   tau(   2) = (   0.5000000   0.2886751   3.0439478  )

     number of k points=    19  Fermi-Dirac smearing, width (Ry)=  0.0250
                       cart. coord. in units 2pi/alat
        k(    1) = (   0.0000000   0.0000000   0.0000000), wk =   0.0138889
        k(    2) = (   0.0000000   0.0962250   0.0000000), wk =   0.0833333
        k(    3) = (   0.0000000   0.1924501   0.0000000), wk =   0.0833333
        k(    4) = (   0.0000000   0.2886751   0.0000000), wk =   0.0833333
        k(    5) = (   0.0000000   0.3849002   0.0000000), wk =   0.0833333
        k(    6) = (   0.0000000   0.4811252   0.0000000), wk =   0.0833333
        k(    7) = (   0.0000000  -0.5773503   0.0000000), wk =   0.0416667
        k(    8) = (   0.0833333   0.1443376   0.0000000), wk =   0.0833333
        k(    9) = (   0.0833333   0.2405626   0.0000000), wk =   0.1666667
        k(   10) = (   0.0833333   0.3367877   0.0000000), wk =   0.1666667
        k(   11) = (   0.0833333   0.4330127   0.0000000), wk =   0.1666667
        k(   12) = (   0.0833333   0.5292377   0.0000000), wk =   0.1666667
        k(   13) = (   0.1666667   0.2886751   0.0000000), wk =   0.0833333
        k(   14) = (   0.1666667   0.3849002   0.0000000), wk =   0.1666667
        k(   15) = (   0.1666667   0.4811252   0.0000000), wk =   0.1666667
        k(   16) = (   0.1666667   0.5773503   0.0000000), wk =   0.0833333
        k(   17) = (   0.2500000   0.4330127   0.0000000), wk =   0.0833333
        k(   18) = (   0.2500000   0.5292377   0.0000000), wk =   0.1666667
        k(   19) = (   0.3333333   0.5773503   0.0000000), wk =   0.0277778

     Dense  grid:    18211 G-vectors     FFT dimensions: (  20,  20, 120)

     Estimated max dynamical RAM per process >      29.77 MB

     Check: negative core charge=   -0.000016

     Initial potential from superposition of free atoms

     starting charge       7.9999, renormalised to       8.0000

     negative rho (up, down):  1.028E-04 0.000E+00
     Starting wfcs are    8 randomized atomic wfcs

     total cpu time spent up to now is        0.6 secs

     Self-consistent Calculation

     iteration #  1     ecut=    40.00 Ry     beta= 0.70
     Davidson diagonalization with overlap
     ethr =  1.00E-02,  avg # of iterations =  7.9

     negative rho (up, down):  1.126E-05 0.000E+00

     total cpu time spent up to now is        1.3 secs

     total energy              =     -23.85824077 Ry
     estimated scf accuracy    <       0.11077210 Ry

     iteration #  2     ecut=    40.00 Ry     beta= 0.70
     Davidson diagonalization with overlap
     ethr =  1.38E-03,  avg # of iterations =  5.4

     negative rho (up, down):  3.707E-04 0.000E+00

     total cpu time spent up to now is        1.8 secs

     total energy              =     -23.89888141 Ry
     estimated scf accuracy    <       0.01501127 Ry

     iteration #  3     ecut=    40.00 Ry     beta= 0.70
     Davidson diagonalization with overlap
     c_bands:  1 eigenvalues not converged
     c_bands:  1 eigenvalues not converged
     c_bands:  1 eigenvalues not converged
     ethr =  1.88E-04,  avg # of iterations = 14.5

     negative rho (up, down):  3.253E-04 0.000E+00

     total cpu time spent up to now is        2.8 secs

     total energy              =     -23.91036980 Ry
     estimated scf accuracy    <       0.00543255 Ry

     iteration #  4     ecut=    40.00 Ry     beta= 0.70
     Davidson diagonalization with overlap
     ethr =  6.79E-05,  avg # of iterations =  5.1

     negative rho (up, down):  5.588E-04 0.000E+00

     total cpu time spent up to now is        3.2 secs

     total energy              =     -23.90932096 Ry
     estimated scf accuracy    <       0.00262335 Ry

     iteration #  5     ecut=    40.00 Ry     beta= 0.70
     Davidson diagonalization with overlap
     ethr =  3.28E-05,  avg # of iterations =  6.1

     negative rho (up, down):  4.365E-04 0.000E+00

     total cpu time spent up to now is        3.8 secs

     total energy              =     -23.90994717 Ry
     estimated scf accuracy    <       0.00127896 Ry

     iteration #  6     ecut=    40.00 Ry     beta= 0.70
     Davidson diagonalization with overlap
     ethr =  1.60E-05,  avg # of iterations =  3.4

     negative rho (up, down):  4.158E-04 0.000E+00

     total cpu time spent up to now is        4.3 secs

     total energy              =     -23.91002778 Ry
     estimated scf accuracy    <       0.00007969 Ry

     iteration #  7     ecut=    40.00 Ry     beta= 0.70
     Davidson diagonalization with overlap
     c_bands:  1 eigenvalues not converged
     c_bands:  1 eigenvalues not converged
     ethr =  9.96E-07,  avg # of iterations = 10.6

     negative rho (up, down):  4.207E-04 0.000E+00

     total cpu time spent up to now is        5.1 secs

     total energy              =     -23.91015417 Ry
     estimated scf accuracy    <       0.00000302 Ry

     iteration #  8     ecut=    40.00 Ry     beta= 0.70
     Davidson diagonalization with overlap
     c_bands:  1 eigenvalues not converged
     ethr =  3.78E-08,  avg # of iterations =  7.1

     negative rho (up, down):  4.185E-04 0.000E+00

     total cpu time spent up to now is        5.7 secs

     End of self-consistent calculation

          k = 0.0000 0.0000 0.0000 (  2289 PWs)   bands (ev):

   -21.2443  -9.3462  -4.7854  -4.7854   1.1573   1.8986   2.1254   4.1395

          k = 0.0000 0.0962 0.0000 (  2286 PWs)   bands (ev):

   -21.0804  -9.1499  -5.4343  -5.1238   1.3832   2.1253   2.3510   4.3626

          k = 0.0000 0.1925 0.0000 (  2280 PWs)   bands (ev):

   -20.5903  -8.5664  -7.0686  -5.9164   2.0608   2.8044   3.0283   5.0296

          k = 0.0000 0.2887 0.0000 (  2278 PWs)   bands (ev):

   -19.7799  -9.1643  -7.6149  -6.7964   3.1887   3.9269   4.1562   5.5249

          k = 0.0000 0.3849 0.0000 (  2272 PWs)   bands (ev):

   -18.6612 -11.3659  -7.5300  -6.3455   3.2034   4.7610   5.7095   6.0475

          k = 0.0000 0.4811 0.0000 (  2282 PWs)   bands (ev):

   -17.2651 -13.4655  -8.0031  -4.9216   1.0670   5.7689   6.7914   7.5522

          k = 0.0000-0.5774 0.0000 (  2260 PWs)   bands (ev):

   -15.9986 -14.9744  -8.1656  -4.0761  -0.0320   5.6916   9.1660   9.2712

          k = 0.0833 0.1443 0.0000 (  2291 PWs)   bands (ev):

   -20.7534  -8.7599  -6.4657  -5.8011   1.8351   2.5785   2.8029   4.8090

          k = 0.0833 0.2406 0.0000 (  2281 PWs)   bands (ev):

   -20.1032  -8.1726  -7.9912  -6.7990   2.7384   3.4818   3.7059   5.6901

          k = 0.0833 0.3368 0.0000 (  2266 PWs)   bands (ev):

   -19.1385 -10.2436  -7.6852  -6.8743   4.0899   4.2090   4.8645   5.0587

          k = 0.0833 0.4330 0.0000 (  2279 PWs)   bands (ev):

   -17.8781 -12.3653  -8.3201  -5.4935   2.0152   5.8786   6.5820   6.6425

          k = 0.0833 0.5292 0.0000 (  2273 PWs)   bands (ev):

   -16.3976 -14.3072  -8.6485  -4.1830   0.2448   6.4280   8.1169   9.1106

          k = 0.1667 0.2887 0.0000 (  2273 PWs)   bands (ev):

   -19.2987  -9.5005  -8.1606  -7.0533   3.8657   4.6069   4.6755   4.8349

          k = 0.1667 0.3849 0.0000 (  2279 PWs)   bands (ev):

   -18.1908 -11.2265  -9.2164  -5.7991   2.7256   5.4379   6.1685   6.4120

          k = 0.1667 0.4811 0.0000 (  2273 PWs)   bands (ev):

   -16.8147 -13.1371  -9.7917  -4.3711   0.8113   7.4386   8.1185   8.2981

          k = 0.1667 0.5774 0.0000 (  2254 PWs)   bands (ev):

   -15.5778 -14.5743  -9.9764  -3.4774  -0.2581   8.2328   9.7626   9.8920

          k = 0.2500 0.4330 0.0000 (  2269 PWs)   bands (ev):

   -16.9625 -12.2595 -10.7003  -4.4553   1.1097   7.2194   7.8506   8.2059

          k = 0.2500 0.5292 0.0000 (  2253 PWs)   bands (ev):

   -15.5396 -13.6814 -11.4072  -3.0682  -0.4120   9.1015   9.3804  10.3828

          k = 0.3333 0.5774 0.0000 (  2259 PWs)   bands (ev):

   -14.3216 -14.3216 -12.3060  -1.7110  -1.7110   8.8868  11.1123  11.1129

     the Fermi energy is    -1.7399 ev

!    total energy              =     -23.91016116 Ry
     estimated scf accuracy    <       0.00000078 Ry
     smearing contrib. (-TS)   =      -0.00220999 Ry
     internal energy E=F+TS    =     -23.90795117 Ry

     The total energy is F=E-TS. E is the sum of the following terms:
     one-electron contribution =    -157.39059150 Ry
     hartree contribution      =      80.15626522 Ry
     xc contribution           =      -8.30327198 Ry
     ewald contribution        =      61.62964709 Ry

     convergence has been achieved in   8 iterations

     Writing all to output data dir ../tmp/gr.save/

     init_run     :      0.48s CPU      0.49s WALL (       1 calls)
     electrons    :      4.42s CPU      5.09s WALL (       1 calls)

     Called by init_run:
     wfcinit      :      0.21s CPU      0.21s WALL (       1 calls)
     potinit      :      0.02s CPU      0.03s WALL (       1 calls)
     hinit0       :      0.23s CPU      0.23s WALL (       1 calls)

     Called by electrons:
     c_bands      :      3.83s CPU      4.45s WALL (       8 calls)
     sum_band     :      0.42s CPU      0.42s WALL (       8 calls)
     v_of_rho     :      0.11s CPU      0.11s WALL (       9 calls)
     newd         :      0.06s CPU      0.06s WALL (       9 calls)
     mix_rho      :      0.01s CPU      0.01s WALL (       8 calls)

     Called by c_bands:
     init_us_2    :      0.07s CPU      0.07s WALL (     323 calls)
     init_us_2:cp :      0.07s CPU      0.07s WALL (     323 calls)
     cegterg      :      3.67s CPU      3.76s WALL (     152 calls)

     Called by *egterg:
     cdiaghg      :      0.06s CPU      0.06s WALL (    1294 calls)
     h_psi        :      2.82s CPU      2.90s WALL (    1313 calls)
     s_psi        :      0.15s CPU      0.15s WALL (    1313 calls)
     g_psi        :      0.03s CPU      0.03s WALL (    1142 calls)

     Called by h_psi:
     h_psi:calbec :      0.16s CPU      0.16s WALL (    1313 calls)
     vloc_psi     :      2.50s CPU      2.57s WALL (    1313 calls)
     add_vuspsi   :      0.15s CPU      0.16s WALL (    1313 calls)

     General routines
     calbec       :      0.19s CPU      0.20s WALL (    1465 calls)
     fft          :      0.19s CPU      0.19s WALL (      99 calls)
     ffts         :      0.00s CPU      0.00s WALL (       8 calls)
     fftw         :      2.48s CPU      2.55s WALL (   11768 calls)


     PWSCF        :      4.95s CPU      6.19s WALL


   This run was terminated on:   0:28:30  25Aug2023            

=------------------------------------------------------------------------------=
   JOB DONE.
=------------------------------------------------------------------------------=
