
     Program PWSCF v.7.0 starts on 25Aug2023 at  0:28:37 

     This program is part of the open-source Quantum ESPRESSO suite
     for quantum simulation of materials; please cite
         "P. Giannozzi et al., J. Phys.:Condens. Matter 21 395502 (2009);
         "P. Giannozzi et al., J. Phys.:Condens. Matter 29 465901 (2017);
         "P. Giannozzi et al., J. Chem. Phys. 152 154105 (2020);
          URL http://www.quantum-espresso.org", 
     in publications or presentations arising from this work. More details at
     http://www.quantum-espresso.org/quote

     Serial version
     6267 MiB available memory on the printing compute node when the environment starts

     Waiting for input...
     Reading input from standard input

     Current dimensions of program PWSCF are:
     Max number of different atomic species (ntypx) = 10
     Max number of k-points (npk) =  40000
     Max angular momentum in pseudopotentials (lmaxx) =  4

     G-vector sticks info
     --------------------
     sticks:   dense  smooth     PW     G-vecs:    dense   smooth      PW
     Sum         241     241     85                18211    18211    3425

     Using Slab Decomposition



     bravais-lattice index     =            4
     lattice parameter (alat)  =       4.6561  a.u.
     unit-cell volume          =     532.1899 (a.u.)^3
     number of atoms/cell      =            2
     number of atomic types    =            1
     number of electrons       =         8.00
     number of Kohn-Sham states=            8
     kinetic-energy cutoff     =      40.0000  Ry
     charge density cutoff     =     160.0000  Ry
     scf convergence threshold =      1.0E-06
     mixing beta               =       0.7000
     number of iterations used =            8  plain     mixing
     Exchange-correlation= PBE
                           (   1   4   3   4   0   0   0)

     celldm(1)=   4.656107  celldm(2)=   0.000000  celldm(3)=   6.087896
     celldm(4)=   0.000000  celldm(5)=   0.000000  celldm(6)=   0.000000

     crystal axes: (cart. coord. in units of alat)
               a(1) = (   1.000000   0.000000   0.000000 )  
               a(2) = (  -0.500000   0.866025   0.000000 )  
               a(3) = (   0.000000   0.000000   6.087896 )  

     reciprocal axes: (cart. coord. in units 2 pi/alat)
               b(1) = (  1.000000  0.577350 -0.000000 )  
               b(2) = (  0.000000  1.154701  0.000000 )  
               b(3) = (  0.000000 -0.000000  0.164260 )  


     PseudoPot. # 1 for C  read from file:
     ../pseudo/C.pbe-n-rrkjus_psl.0.1.UPF
     MD5 check sum: 96a6a315177d77e6c95bf6fd3870f9e3
     Pseudo is Ultrasoft + core correction, Zval =  4.0
     Generated using &quot;atomic&quot; code by A. Dal Corso  v.6.3MaX
     Using radial grid of 1073 points,  4 beta functions with: 
                l(1) =   0
                l(2) =   0
                l(3) =   1
                l(4) =   1
     Q(r) pseudized with 0 coefficients 


     atomic species   valence    mass     pseudopotential
        C              4.00    12.01070     C ( 1.00)

     24 Sym. Ops., with inversion, found



   Cartesian axes

     site n.     atom                  positions (alat units)
         1           C   tau(   1) = (   0.0000000   0.5773503   3.0439478  )
         2           C   tau(   2) = (   0.5000000   0.2886751   3.0439478  )

     number of k points=    19  Fermi-Dirac smearing, width (Ry)=  0.0350
                       cart. coord. in units 2pi/alat
        k(    1) = (   0.0000000   0.0000000   0.0000000), wk =   0.0138889
        k(    2) = (   0.0000000   0.0962250   0.0000000), wk =   0.0833333
        k(    3) = (   0.0000000   0.1924501   0.0000000), wk =   0.0833333
        k(    4) = (   0.0000000   0.2886751   0.0000000), wk =   0.0833333
        k(    5) = (   0.0000000   0.3849002   0.0000000), wk =   0.0833333
        k(    6) = (   0.0000000   0.4811252   0.0000000), wk =   0.0833333
        k(    7) = (   0.0000000  -0.5773503   0.0000000), wk =   0.0416667
        k(    8) = (   0.0833333   0.1443376   0.0000000), wk =   0.0833333
        k(    9) = (   0.0833333   0.2405626   0.0000000), wk =   0.1666667
        k(   10) = (   0.0833333   0.3367877   0.0000000), wk =   0.1666667
        k(   11) = (   0.0833333   0.4330127   0.0000000), wk =   0.1666667
        k(   12) = (   0.0833333   0.5292377   0.0000000), wk =   0.1666667
        k(   13) = (   0.1666667   0.2886751   0.0000000), wk =   0.0833333
        k(   14) = (   0.1666667   0.3849002   0.0000000), wk =   0.1666667
        k(   15) = (   0.1666667   0.4811252   0.0000000), wk =   0.1666667
        k(   16) = (   0.1666667   0.5773503   0.0000000), wk =   0.0833333
        k(   17) = (   0.2500000   0.4330127   0.0000000), wk =   0.0833333
        k(   18) = (   0.2500000   0.5292377   0.0000000), wk =   0.1666667
        k(   19) = (   0.3333333   0.5773503   0.0000000), wk =   0.0277778

     Dense  grid:    18211 G-vectors     FFT dimensions: (  20,  20, 120)

     Estimated max dynamical RAM per process >      29.77 MB

     Check: negative core charge=   -0.000016

     Initial potential from superposition of free atoms

     starting charge       7.9999, renormalised to       8.0000

     negative rho (up, down):  1.028E-04 0.000E+00
     Starting wfcs are    8 randomized atomic wfcs

     total cpu time spent up to now is        0.6 secs

     Self-consistent Calculation

     iteration #  1     ecut=    40.00 Ry     beta= 0.70
     Davidson diagonalization with overlap
     ethr =  1.00E-02,  avg # of iterations =  7.9

     negative rho (up, down):  1.134E-05 0.000E+00

     total cpu time spent up to now is        1.3 secs

     total energy              =     -23.85925300 Ry
     estimated scf accuracy    <       0.11094163 Ry

     iteration #  2     ecut=    40.00 Ry     beta= 0.70
     Davidson diagonalization with overlap
     ethr =  1.39E-03,  avg # of iterations =  5.4

     negative rho (up, down):  3.702E-04 0.000E+00

     total cpu time spent up to now is        1.9 secs

     total energy              =     -23.90031760 Ry
     estimated scf accuracy    <       0.01496361 Ry

     iteration #  3     ecut=    40.00 Ry     beta= 0.70
     Davidson diagonalization with overlap
     c_bands:  1 eigenvalues not converged
     c_bands:  1 eigenvalues not converged
     c_bands:  1 eigenvalues not converged
     ethr =  1.87E-04,  avg # of iterations = 15.1

     negative rho (up, down):  2.797E-04 0.000E+00

     total cpu time spent up to now is        2.9 secs

     total energy              =     -23.91171919 Ry
     estimated scf accuracy    <       0.00554056 Ry

     iteration #  4     ecut=    40.00 Ry     beta= 0.70
     Davidson diagonalization with overlap
     ethr =  6.93E-05,  avg # of iterations =  4.4

     negative rho (up, down):  7.048E-04 0.000E+00

     total cpu time spent up to now is        3.4 secs

     total energy              =     -23.91056951 Ry
     estimated scf accuracy    <       0.00264682 Ry

     iteration #  5     ecut=    40.00 Ry     beta= 0.70
     Davidson diagonalization with overlap
     ethr =  3.31E-05,  avg # of iterations =  5.5

     negative rho (up, down):  4.285E-04 0.000E+00

     total cpu time spent up to now is        4.0 secs

     total energy              =     -23.91130436 Ry
     estimated scf accuracy    <       0.00073192 Ry

     iteration #  6     ecut=    40.00 Ry     beta= 0.70
     Davidson diagonalization with overlap
     c_bands:  1 eigenvalues not converged
     ethr =  9.15E-06,  avg # of iterations =  5.9

     negative rho (up, down):  3.564E-04 0.000E+00

     total cpu time spent up to now is        4.5 secs

     total energy              =     -23.91138523 Ry
     estimated scf accuracy    <       0.00007382 Ry

     iteration #  7     ecut=    40.00 Ry     beta= 0.70
     Davidson diagonalization with overlap
     c_bands:  1 eigenvalues not converged
     c_bands:  1 eigenvalues not converged
     ethr =  9.23E-07,  avg # of iterations =  8.9

     negative rho (up, down):  3.753E-04 0.000E+00

     total cpu time spent up to now is        5.3 secs

     total energy              =     -23.91147665 Ry
     estimated scf accuracy    <       0.00000451 Ry

     iteration #  8     ecut=    40.00 Ry     beta= 0.70
     Davidson diagonalization with overlap
     ethr =  5.63E-08,  avg # of iterations =  6.3

     negative rho (up, down):  3.732E-04 0.000E+00

     total cpu time spent up to now is        5.9 secs

     total energy              =     -23.91148314 Ry
     estimated scf accuracy    <       0.00000185 Ry

     iteration #  9     ecut=    40.00 Ry     beta= 0.70
     Davidson diagonalization with overlap
     ethr =  2.32E-08,  avg # of iterations =  2.1

     negative rho (up, down):  3.613E-04 0.000E+00

     total cpu time spent up to now is        6.3 secs

     total energy              =     -23.91148290 Ry
     estimated scf accuracy    <       0.00000170 Ry

     iteration # 10     ecut=    40.00 Ry     beta= 0.70
     Davidson diagonalization with overlap
     ethr =  2.13E-08,  avg # of iterations =  1.4

     negative rho (up, down):  3.636E-04 0.000E+00

     total cpu time spent up to now is        6.7 secs

     total energy              =     -23.91148301 Ry
     estimated scf accuracy    <       0.00000150 Ry

     iteration # 11     ecut=    40.00 Ry     beta= 0.70
     Davidson diagonalization with overlap
     ethr =  1.87E-08,  avg # of iterations =  1.0

     negative rho (up, down):  3.614E-04 0.000E+00

     total cpu time spent up to now is        7.1 secs

     End of self-consistent calculation

          k = 0.0000 0.0000 0.0000 (  2289 PWs)   bands (ev):

   -21.2706  -9.3699  -4.8123  -4.8123   1.1561   1.8996   2.1271   4.1402

          k = 0.0000 0.0962 0.0000 (  2286 PWs)   bands (ev):

   -21.1067  -9.1737  -5.4611  -5.1507   1.3819   2.1263   2.3528   4.3634

          k = 0.0000 0.1925 0.0000 (  2280 PWs)   bands (ev):

   -20.6167  -8.5902  -7.0954  -5.9432   2.0593   2.8053   3.0301   5.0305

          k = 0.0000 0.2887 0.0000 (  2278 PWs)   bands (ev):

   -19.8063  -9.1910  -7.6387  -6.8233   3.1868   3.9274   4.1582   5.5019

          k = 0.0000 0.3849 0.0000 (  2272 PWs)   bands (ev):

   -18.6876 -11.3926  -7.5569  -6.3695   3.1790   4.7583   5.7088   6.0233

          k = 0.0000 0.4811 0.0000 (  2282 PWs)   bands (ev):

   -17.2916 -13.4921  -8.0301  -4.9457   1.0429   5.7426   6.7882   7.5499

          k = 0.0000-0.5774 0.0000 (  2260 PWs)   bands (ev):

   -16.0250 -15.0011  -8.1925  -4.1004  -0.0559   5.6651   9.1602   9.2671

          k = 0.0833 0.1443 0.0000 (  2291 PWs)   bands (ev):

   -20.7798  -8.7837  -6.4925  -5.8280   1.8337   2.5793   2.8046   4.8094

          k = 0.0833 0.2406 0.0000 (  2281 PWs)   bands (ev):

   -20.1296  -8.1994  -8.0151  -6.8259   2.7366   3.4826   3.7079   5.6909

          k = 0.0833 0.3368 0.0000 (  2266 PWs)   bands (ev):

   -19.1649 -10.2703  -7.7121  -6.8982   4.0877   4.1853   4.8640   5.0606

          k = 0.0833 0.4330 0.0000 (  2279 PWs)   bands (ev):

   -17.9045 -12.3919  -8.3469  -5.5176   1.9909   5.8752   6.5584   6.6419

          k = 0.0833 0.5292 0.0000 (  2273 PWs)   bands (ev):

   -16.4240 -14.3339  -8.6754  -4.2072   0.2207   6.4016   8.1128   9.1134

          k = 0.1667 0.2887 0.0000 (  2273 PWs)   bands (ev):

   -19.3251  -9.5272  -8.1875  -7.0772   3.8637   4.6074   4.6507   4.8371

          k = 0.1667 0.3849 0.0000 (  2279 PWs)   bands (ev):

   -18.2173 -11.2531  -9.2432  -5.8231   2.7010   5.4352   6.1684   6.4144

          k = 0.1667 0.4811 0.0000 (  2273 PWs)   bands (ev):

   -16.8412 -13.1637  -9.8186  -4.3953   0.7870   7.4345   8.1178   8.2749

          k = 0.1667 0.5774 0.0000 (  2254 PWs)   bands (ev):

   -15.6042 -14.6010 -10.0032  -3.5017  -0.2822   8.2065   9.7559   9.8948

          k = 0.2500 0.4330 0.0000 (  2269 PWs)   bands (ev):

   -16.9890 -12.2861 -10.7272  -4.4794   1.0852   7.2157   7.8479   8.2085

          k = 0.2500 0.5292 0.0000 (  2253 PWs)   bands (ev):

   -15.5660 -13.7079 -11.4341  -3.0925  -0.4364   9.0858   9.3742  10.3797

          k = 0.3333 0.5774 0.0000 (  2259 PWs)   bands (ev):

   -14.3480 -14.3480 -12.3330  -1.7354  -1.7354   8.8678  11.0958  11.0981

     the Fermi energy is    -1.7984 ev

!    total energy              =     -23.91148276 Ry
     estimated scf accuracy    <       0.00000075 Ry
     smearing contrib. (-TS)   =      -0.00640868 Ry
     internal energy E=F+TS    =     -23.90507408 Ry

     The total energy is F=E-TS. E is the sum of the following terms:
     one-electron contribution =    -157.38586786 Ry
     hartree contribution      =      80.15459121 Ry
     xc contribution           =      -8.30344453 Ry
     ewald contribution        =      61.62964709 Ry

     convergence has been achieved in  11 iterations

     Writing all to output data dir ../tmp/gr.save/

     init_run     :      0.48s CPU      0.49s WALL (       1 calls)
     electrons    :      5.52s CPU      6.50s WALL (       1 calls)

     Called by init_run:
     wfcinit      :      0.21s CPU      0.21s WALL (       1 calls)
     potinit      :      0.03s CPU      0.03s WALL (       1 calls)
     hinit0       :      0.23s CPU      0.23s WALL (       1 calls)

     Called by electrons:
     c_bands      :      4.71s CPU      5.59s WALL (      11 calls)
     sum_band     :      0.55s CPU      0.59s WALL (      11 calls)
     v_of_rho     :      0.15s CPU      0.15s WALL (      12 calls)
     newd         :      0.08s CPU      0.08s WALL (      12 calls)
     mix_rho      :      0.02s CPU      0.03s WALL (      11 calls)

     Called by c_bands:
     init_us_2    :      0.10s CPU      0.10s WALL (     437 calls)
     init_us_2:cp :      0.10s CPU      0.10s WALL (     437 calls)
     cegterg      :      4.47s CPU      4.58s WALL (     209 calls)

     Called by *egterg:
     cdiaghg      :      0.07s CPU      0.07s WALL (    1422 calls)
     h_psi        :      3.44s CPU      3.55s WALL (    1441 calls)
     s_psi        :      0.19s CPU      0.19s WALL (    1441 calls)
     g_psi        :      0.03s CPU      0.03s WALL (    1213 calls)

     Called by h_psi:
     h_psi:calbec :      0.20s CPU      0.21s WALL (    1441 calls)
     vloc_psi     :      3.03s CPU      3.13s WALL (    1441 calls)
     add_vuspsi   :      0.19s CPU      0.19s WALL (    1441 calls)

     General routines
     calbec       :      0.25s CPU      0.26s WALL (    1650 calls)
     fft          :      0.20s CPU      0.20s WALL (     132 calls)
     ffts         :      0.00s CPU      0.00s WALL (      11 calls)
     fftw         :      3.02s CPU      3.12s WALL (   14046 calls)


     PWSCF        :      6.05s CPU      7.77s WALL


   This run was terminated on:   0:28:44  25Aug2023            

=------------------------------------------------------------------------------=
   JOB DONE.
=------------------------------------------------------------------------------=
