
     Program PWSCF v.7.0 starts on 25Aug2023 at  0:28:30 

     This program is part of the open-source Quantum ESPRESSO suite
     for quantum simulation of materials; please cite
         "P. Giannozzi et al., J. Phys.:Condens. Matter 21 395502 (2009);
         "P. Giannozzi et al., J. Phys.:Condens. Matter 29 465901 (2017);
         "P. Giannozzi et al., J. Chem. Phys. 152 154105 (2020);
          URL http://www.quantum-espresso.org", 
     in publications or presentations arising from this work. More details at
     http://www.quantum-espresso.org/quote

     Serial version
     6269 MiB available memory on the printing compute node when the environment starts

     Waiting for input...
     Reading input from standard input

     Current dimensions of program PWSCF are:
     Max number of different atomic species (ntypx) = 10
     Max number of k-points (npk) =  40000
     Max angular momentum in pseudopotentials (lmaxx) =  4

     G-vector sticks info
     --------------------
     sticks:   dense  smooth     PW     G-vecs:    dense   smooth      PW
     Sum         241     241     85                18211    18211    3425

     Using Slab Decomposition



     bravais-lattice index     =            4
     lattice parameter (alat)  =       4.6561  a.u.
     unit-cell volume          =     532.1899 (a.u.)^3
     number of atoms/cell      =            2
     number of atomic types    =            1
     number of electrons       =         8.00
     number of Kohn-Sham states=            8
     kinetic-energy cutoff     =      40.0000  Ry
     charge density cutoff     =     160.0000  Ry
     scf convergence threshold =      1.0E-06
     mixing beta               =       0.7000
     number of iterations used =            8  plain     mixing
     Exchange-correlation= PBE
                           (   1   4   3   4   0   0   0)

     celldm(1)=   4.656107  celldm(2)=   0.000000  celldm(3)=   6.087896
     celldm(4)=   0.000000  celldm(5)=   0.000000  celldm(6)=   0.000000

     crystal axes: (cart. coord. in units of alat)
               a(1) = (   1.000000   0.000000   0.000000 )  
               a(2) = (  -0.500000   0.866025   0.000000 )  
               a(3) = (   0.000000   0.000000   6.087896 )  

     reciprocal axes: (cart. coord. in units 2 pi/alat)
               b(1) = (  1.000000  0.577350 -0.000000 )  
               b(2) = (  0.000000  1.154701  0.000000 )  
               b(3) = (  0.000000 -0.000000  0.164260 )  


     PseudoPot. # 1 for C  read from file:
     ../pseudo/C.pbe-n-rrkjus_psl.0.1.UPF
     MD5 check sum: 96a6a315177d77e6c95bf6fd3870f9e3
     Pseudo is Ultrasoft + core correction, Zval =  4.0
     Generated using &quot;atomic&quot; code by A. Dal Corso  v.6.3MaX
     Using radial grid of 1073 points,  4 beta functions with: 
                l(1) =   0
                l(2) =   0
                l(3) =   1
                l(4) =   1
     Q(r) pseudized with 0 coefficients 


     atomic species   valence    mass     pseudopotential
        C              4.00    12.01070     C ( 1.00)

     24 Sym. Ops., with inversion, found



   Cartesian axes

     site n.     atom                  positions (alat units)
         1           C   tau(   1) = (   0.0000000   0.5773503   3.0439478  )
         2           C   tau(   2) = (   0.5000000   0.2886751   3.0439478  )

     number of k points=    19  Fermi-Dirac smearing, width (Ry)=  0.0300
                       cart. coord. in units 2pi/alat
        k(    1) = (   0.0000000   0.0000000   0.0000000), wk =   0.0138889
        k(    2) = (   0.0000000   0.0962250   0.0000000), wk =   0.0833333
        k(    3) = (   0.0000000   0.1924501   0.0000000), wk =   0.0833333
        k(    4) = (   0.0000000   0.2886751   0.0000000), wk =   0.0833333
        k(    5) = (   0.0000000   0.3849002   0.0000000), wk =   0.0833333
        k(    6) = (   0.0000000   0.4811252   0.0000000), wk =   0.0833333
        k(    7) = (   0.0000000  -0.5773503   0.0000000), wk =   0.0416667
        k(    8) = (   0.0833333   0.1443376   0.0000000), wk =   0.0833333
        k(    9) = (   0.0833333   0.2405626   0.0000000), wk =   0.1666667
        k(   10) = (   0.0833333   0.3367877   0.0000000), wk =   0.1666667
        k(   11) = (   0.0833333   0.4330127   0.0000000), wk =   0.1666667
        k(   12) = (   0.0833333   0.5292377   0.0000000), wk =   0.1666667
        k(   13) = (   0.1666667   0.2886751   0.0000000), wk =   0.0833333
        k(   14) = (   0.1666667   0.3849002   0.0000000), wk =   0.1666667
        k(   15) = (   0.1666667   0.4811252   0.0000000), wk =   0.1666667
        k(   16) = (   0.1666667   0.5773503   0.0000000), wk =   0.0833333
        k(   17) = (   0.2500000   0.4330127   0.0000000), wk =   0.0833333
        k(   18) = (   0.2500000   0.5292377   0.0000000), wk =   0.1666667
        k(   19) = (   0.3333333   0.5773503   0.0000000), wk =   0.0277778

     Dense  grid:    18211 G-vectors     FFT dimensions: (  20,  20, 120)

     Estimated max dynamical RAM per process >      29.77 MB

     Check: negative core charge=   -0.000016

     Initial potential from superposition of free atoms

     starting charge       7.9999, renormalised to       8.0000

     negative rho (up, down):  1.028E-04 0.000E+00
     Starting wfcs are    8 randomized atomic wfcs

     total cpu time spent up to now is        0.6 secs

     Self-consistent Calculation

     iteration #  1     ecut=    40.00 Ry     beta= 0.70
     Davidson diagonalization with overlap
     ethr =  1.00E-02,  avg # of iterations =  7.9

     negative rho (up, down):  1.129E-05 0.000E+00

     total cpu time spent up to now is        1.3 secs

     total energy              =     -23.85866011 Ry
     estimated scf accuracy    <       0.11084203 Ry

     iteration #  2     ecut=    40.00 Ry     beta= 0.70
     Davidson diagonalization with overlap
     ethr =  1.39E-03,  avg # of iterations =  5.4

     negative rho (up, down):  3.713E-04 0.000E+00

     total cpu time spent up to now is        1.8 secs

     total energy              =     -23.89947525 Ry
     estimated scf accuracy    <       0.01502000 Ry

     iteration #  3     ecut=    40.00 Ry     beta= 0.70
     Davidson diagonalization with overlap
     c_bands:  1 eigenvalues not converged
     c_bands:  1 eigenvalues not converged
     c_bands:  1 eigenvalues not converged
     ethr =  1.88E-04,  avg # of iterations = 14.4

     negative rho (up, down):  3.101E-04 0.000E+00

     total cpu time spent up to now is        2.8 secs

     total energy              =     -23.91092333 Ry
     estimated scf accuracy    <       0.00548728 Ry

     iteration #  4     ecut=    40.00 Ry     beta= 0.70
     Davidson diagonalization with overlap
     ethr =  6.86E-05,  avg # of iterations =  4.8

     negative rho (up, down):  6.391E-04 0.000E+00

     total cpu time spent up to now is        3.3 secs

     total energy              =     -23.90984211 Ry
     estimated scf accuracy    <       0.00264933 Ry

     iteration #  5     ecut=    40.00 Ry     beta= 0.70
     Davidson diagonalization with overlap
     ethr =  3.31E-05,  avg # of iterations =  6.3

     negative rho (up, down):  4.383E-04 0.000E+00

     total cpu time spent up to now is        3.9 secs

     total energy              =     -23.91049871 Ry
     estimated scf accuracy    <       0.00117597 Ry

     iteration #  6     ecut=    40.00 Ry     beta= 0.70
     Davidson diagonalization with overlap
     ethr =  1.47E-05,  avg # of iterations =  3.2

     negative rho (up, down):  3.996E-04 0.000E+00

     total cpu time spent up to now is        4.3 secs

     total energy              =     -23.91057162 Ry
     estimated scf accuracy    <       0.00007733 Ry

     iteration #  7     ecut=    40.00 Ry     beta= 0.70
     Davidson diagonalization with overlap
     c_bands:  1 eigenvalues not converged
     c_bands:  1 eigenvalues not converged
     ethr =  9.67E-07,  avg # of iterations = 11.3

     negative rho (up, down):  4.082E-04 0.000E+00

     total cpu time spent up to now is        5.2 secs

     total energy              =     -23.91069521 Ry
     estimated scf accuracy    <       0.00000550 Ry

     iteration #  8     ecut=    40.00 Ry     beta= 0.70
     Davidson diagonalization with overlap
     ethr =  6.88E-08,  avg # of iterations =  6.3

     negative rho (up, down):  4.026E-04 0.000E+00

     total cpu time spent up to now is        5.7 secs

     End of self-consistent calculation

          k = 0.0000 0.0000 0.0000 (  2289 PWs)   bands (ev):

   -21.2460  -9.3478  -4.7871  -4.7871   1.1568   1.8982   2.1255   4.1396

          k = 0.0000 0.0962 0.0000 (  2286 PWs)   bands (ev):

   -21.0821  -9.1515  -5.4360  -5.1256   1.3827   2.1249   2.3511   4.3623

          k = 0.0000 0.1925 0.0000 (  2280 PWs)   bands (ev):

   -20.5920  -8.5680  -7.0704  -5.9181   2.0603   2.8040   3.0284   5.0296

          k = 0.0000 0.2887 0.0000 (  2278 PWs)   bands (ev):

   -19.7817  -9.1660  -7.6165  -6.7981   3.1881   3.9264   4.1564   5.5222

          k = 0.0000 0.3849 0.0000 (  2272 PWs)   bands (ev):

   -18.6629 -11.3676  -7.5318  -6.3472   3.2017   4.7604   5.7094   6.0459

          k = 0.0000 0.4811 0.0000 (  2282 PWs)   bands (ev):

   -17.2669 -13.4672  -8.0049  -4.9232   1.0654   5.7672   6.7907   7.5508

          k = 0.0000-0.5774 0.0000 (  2260 PWs)   bands (ev):

   -16.0003 -14.9761  -8.1673  -4.0777  -0.0336   5.6899   9.1649   9.2702

          k = 0.0833 0.1443 0.0000 (  2291 PWs)   bands (ev):

   -20.7551  -8.7615  -6.4674  -5.8028   1.8346   2.5782   2.8030   4.8090

          k = 0.0833 0.2406 0.0000 (  2281 PWs)   bands (ev):

   -20.1049  -8.1743  -7.9928  -6.8007   2.7379   3.4814   3.7061   5.6897

          k = 0.0833 0.3368 0.0000 (  2266 PWs)   bands (ev):

   -19.1402 -10.2453  -7.6869  -6.8759   4.0893   4.2074   4.8639   5.0588

          k = 0.0833 0.4330 0.0000 (  2279 PWs)   bands (ev):

   -17.8798 -12.3670  -8.3218  -5.4951   2.0135   5.8779   6.5805   6.6424

          k = 0.0833 0.5292 0.0000 (  2273 PWs)   bands (ev):

   -16.3993 -14.3089  -8.6502  -4.1846   0.2431   6.4263   8.1162   9.1109

          k = 0.1667 0.2887 0.0000 (  2273 PWs)   bands (ev):

   -19.3004  -9.5022  -8.1623  -7.0549   3.8653   4.6064   4.6738   4.8356

          k = 0.1667 0.3849 0.0000 (  2279 PWs)   bands (ev):

   -18.1925 -11.2282  -9.2181  -5.8007   2.7239   5.4373   6.1682   6.4126

          k = 0.1667 0.4811 0.0000 (  2273 PWs)   bands (ev):

   -16.8164 -13.1388  -9.7934  -4.3727   0.8097   7.4379   8.1182   8.2986

          k = 0.1667 0.5774 0.0000 (  2254 PWs)   bands (ev):

   -15.5795 -14.5760  -9.9781  -3.4791  -0.2597   8.2311   9.7620   9.8995

          k = 0.2500 0.4330 0.0000 (  2269 PWs)   bands (ev):

   -16.9643 -12.2612 -10.7020  -4.4569   1.1081   7.2187   7.8499   8.2061

          k = 0.2500 0.5292 0.0000 (  2253 PWs)   bands (ev):

   -15.5413 -13.6831 -11.4090  -3.0698  -0.4136   9.1000   9.3795  10.3804

          k = 0.3333 0.5774 0.0000 (  2259 PWs)   bands (ev):

   -14.3233 -14.3233 -12.3078  -1.7127  -1.7127   8.8852  11.1108  11.1121

     the Fermi energy is    -1.7600 ev

!    total energy              =     -23.91070295 Ry
     estimated scf accuracy    <       0.00000087 Ry
     smearing contrib. (-TS)   =      -0.00391121 Ry
     internal energy E=F+TS    =     -23.90679174 Ry

     The total energy is F=E-TS. E is the sum of the following terms:
     one-electron contribution =    -157.38762236 Ry
     hartree contribution      =      80.15433242 Ry
     xc contribution           =      -8.30314890 Ry
     ewald contribution        =      61.62964709 Ry

     convergence has been achieved in   8 iterations

     Writing all to output data dir ../tmp/gr.save/

     init_run     :      0.47s CPU      0.48s WALL (       1 calls)
     electrons    :      4.44s CPU      5.14s WALL (       1 calls)

     Called by init_run:
     wfcinit      :      0.21s CPU      0.21s WALL (       1 calls)
     potinit      :      0.02s CPU      0.03s WALL (       1 calls)
     hinit0       :      0.22s CPU      0.23s WALL (       1 calls)

     Called by electrons:
     c_bands      :      3.86s CPU      4.50s WALL (       8 calls)
     sum_band     :      0.41s CPU      0.41s WALL (       8 calls)
     v_of_rho     :      0.11s CPU      0.11s WALL (       9 calls)
     newd         :      0.06s CPU      0.06s WALL (       9 calls)
     mix_rho      :      0.01s CPU      0.01s WALL (       8 calls)

     Called by c_bands:
     init_us_2    :      0.07s CPU      0.07s WALL (     323 calls)
     init_us_2:cp :      0.07s CPU      0.07s WALL (     323 calls)
     cegterg      :      3.69s CPU      3.81s WALL (     152 calls)

     Called by *egterg:
     cdiaghg      :      0.06s CPU      0.06s WALL (    1286 calls)
     h_psi        :      2.84s CPU      2.94s WALL (    1305 calls)
     s_psi        :      0.15s CPU      0.16s WALL (    1305 calls)
     g_psi        :      0.03s CPU      0.03s WALL (    1134 calls)

     Called by h_psi:
     h_psi:calbec :      0.17s CPU      0.17s WALL (    1305 calls)
     vloc_psi     :      2.50s CPU      2.59s WALL (    1305 calls)
     add_vuspsi   :      0.16s CPU      0.16s WALL (    1305 calls)

     General routines
     calbec       :      0.20s CPU      0.20s WALL (    1457 calls)
     fft          :      0.18s CPU      0.18s WALL (      99 calls)
     ffts         :      0.00s CPU      0.00s WALL (       8 calls)
     fftw         :      2.48s CPU      2.56s WALL (   11718 calls)


     PWSCF        :      4.96s CPU      6.23s WALL


   This run was terminated on:   0:28:37  25Aug2023            

=------------------------------------------------------------------------------=
   JOB DONE.
=------------------------------------------------------------------------------=
