
     Program PWSCF v.7.0 starts on 25Aug2023 at  0:28:44 

     This program is part of the open-source Quantum ESPRESSO suite
     for quantum simulation of materials; please cite
         "P. Giannozzi et al., J. Phys.:Condens. Matter 21 395502 (2009);
         "P. Giannozzi et al., J. Phys.:Condens. Matter 29 465901 (2017);
         "P. Giannozzi et al., J. Chem. Phys. 152 154105 (2020);
          URL http://www.quantum-espresso.org", 
     in publications or presentations arising from this work. More details at
     http://www.quantum-espresso.org/quote

     Serial version
     6269 MiB available memory on the printing compute node when the environment starts

     Waiting for input...
     Reading input from standard input

     Current dimensions of program PWSCF are:
     Max number of different atomic species (ntypx) = 10
     Max number of k-points (npk) =  40000
     Max angular momentum in pseudopotentials (lmaxx) =  4

     G-vector sticks info
     --------------------
     sticks:   dense  smooth     PW     G-vecs:    dense   smooth      PW
     Sum         241     241     85                18211    18211    3425

     Using Slab Decomposition



     bravais-lattice index     =            4
     lattice parameter (alat)  =       4.6561  a.u.
     unit-cell volume          =     532.1899 (a.u.)^3
     number of atoms/cell      =            2
     number of atomic types    =            1
     number of electrons       =         8.00
     number of Kohn-Sham states=            8
     kinetic-energy cutoff     =      40.0000  Ry
     charge density cutoff     =     160.0000  Ry
     scf convergence threshold =      1.0E-06
     mixing beta               =       0.7000
     number of iterations used =            8  plain     mixing
     Exchange-correlation= PBE
                           (   1   4   3   4   0   0   0)

     celldm(1)=   4.656107  celldm(2)=   0.000000  celldm(3)=   6.087896
     celldm(4)=   0.000000  celldm(5)=   0.000000  celldm(6)=   0.000000

     crystal axes: (cart. coord. in units of alat)
               a(1) = (   1.000000   0.000000   0.000000 )  
               a(2) = (  -0.500000   0.866025   0.000000 )  
               a(3) = (   0.000000   0.000000   6.087896 )  

     reciprocal axes: (cart. coord. in units 2 pi/alat)
               b(1) = (  1.000000  0.577350 -0.000000 )  
               b(2) = (  0.000000  1.154701  0.000000 )  
               b(3) = (  0.000000 -0.000000  0.164260 )  


     PseudoPot. # 1 for C  read from file:
     ../pseudo/C.pbe-n-rrkjus_psl.0.1.UPF
     MD5 check sum: 96a6a315177d77e6c95bf6fd3870f9e3
     Pseudo is Ultrasoft + core correction, Zval =  4.0
     Generated using &quot;atomic&quot; code by A. Dal Corso  v.6.3MaX
     Using radial grid of 1073 points,  4 beta functions with: 
                l(1) =   0
                l(2) =   0
                l(3) =   1
                l(4) =   1
     Q(r) pseudized with 0 coefficients 


     atomic species   valence    mass     pseudopotential
        C              4.00    12.01070     C ( 1.00)

     24 Sym. Ops., with inversion, found



   Cartesian axes

     site n.     atom                  positions (alat units)
         1           C   tau(   1) = (   0.0000000   0.5773503   3.0439478  )
         2           C   tau(   2) = (   0.5000000   0.2886751   3.0439478  )

     number of k points=    19  Fermi-Dirac smearing, width (Ry)=  0.0400
                       cart. coord. in units 2pi/alat
        k(    1) = (   0.0000000   0.0000000   0.0000000), wk =   0.0138889
        k(    2) = (   0.0000000   0.0962250   0.0000000), wk =   0.0833333
        k(    3) = (   0.0000000   0.1924501   0.0000000), wk =   0.0833333
        k(    4) = (   0.0000000   0.2886751   0.0000000), wk =   0.0833333
        k(    5) = (   0.0000000   0.3849002   0.0000000), wk =   0.0833333
        k(    6) = (   0.0000000   0.4811252   0.0000000), wk =   0.0833333
        k(    7) = (   0.0000000  -0.5773503   0.0000000), wk =   0.0416667
        k(    8) = (   0.0833333   0.1443376   0.0000000), wk =   0.0833333
        k(    9) = (   0.0833333   0.2405626   0.0000000), wk =   0.1666667
        k(   10) = (   0.0833333   0.3367877   0.0000000), wk =   0.1666667
        k(   11) = (   0.0833333   0.4330127   0.0000000), wk =   0.1666667
        k(   12) = (   0.0833333   0.5292377   0.0000000), wk =   0.1666667
        k(   13) = (   0.1666667   0.2886751   0.0000000), wk =   0.0833333
        k(   14) = (   0.1666667   0.3849002   0.0000000), wk =   0.1666667
        k(   15) = (   0.1666667   0.4811252   0.0000000), wk =   0.1666667
        k(   16) = (   0.1666667   0.5773503   0.0000000), wk =   0.0833333
        k(   17) = (   0.2500000   0.4330127   0.0000000), wk =   0.0833333
        k(   18) = (   0.2500000   0.5292377   0.0000000), wk =   0.1666667
        k(   19) = (   0.3333333   0.5773503   0.0000000), wk =   0.0277778

     Dense  grid:    18211 G-vectors     FFT dimensions: (  20,  20, 120)

     Estimated max dynamical RAM per process >      29.77 MB

     Check: negative core charge=   -0.000016

     Initial potential from superposition of free atoms

     starting charge       7.9999, renormalised to       8.0000

     negative rho (up, down):  1.028E-04 0.000E+00
     Starting wfcs are    8 randomized atomic wfcs

     total cpu time spent up to now is        0.7 secs

     Self-consistent Calculation

     iteration #  1     ecut=    40.00 Ry     beta= 0.70
     Davidson diagonalization with overlap
     ethr =  1.00E-02,  avg # of iterations =  7.9

     negative rho (up, down):  1.140E-05 0.000E+00

     total cpu time spent up to now is        1.4 secs

     total energy              =     -23.86006115 Ry
     estimated scf accuracy    <       0.11106969 Ry

     iteration #  2     ecut=    40.00 Ry     beta= 0.70
     Davidson diagonalization with overlap
     ethr =  1.39E-03,  avg # of iterations =  5.7

     negative rho (up, down):  3.733E-04 0.000E+00

     total cpu time spent up to now is        1.9 secs

     total energy              =     -23.90158408 Ry
     estimated scf accuracy    <       0.01503897 Ry

     iteration #  3     ecut=    40.00 Ry     beta= 0.70
     Davidson diagonalization with overlap
     c_bands:  1 eigenvalues not converged
     c_bands:  1 eigenvalues not converged
     c_bands:  1 eigenvalues not converged
     ethr =  1.88E-04,  avg # of iterations = 14.9

     negative rho (up, down):  2.324E-04 0.000E+00

     total cpu time spent up to now is        2.9 secs

     total energy              =     -23.91283981 Ry
     estimated scf accuracy    <       0.00579128 Ry

     iteration #  4     ecut=    40.00 Ry     beta= 0.70
     Davidson diagonalization with overlap
     ethr =  7.24E-05,  avg # of iterations =  4.1

     negative rho (up, down):  7.085E-04 0.000E+00

     total cpu time spent up to now is        3.4 secs

     total energy              =     -23.91159456 Ry
     estimated scf accuracy    <       0.00274977 Ry

     iteration #  5     ecut=    40.00 Ry     beta= 0.70
     Davidson diagonalization with overlap
     ethr =  3.44E-05,  avg # of iterations =  5.4

     negative rho (up, down):  3.913E-04 0.000E+00

     total cpu time spent up to now is        3.9 secs

     total energy              =     -23.91239063 Ry
     estimated scf accuracy    <       0.00038555 Ry

     iteration #  6     ecut=    40.00 Ry     beta= 0.70
     Davidson diagonalization with overlap
     c_bands:  1 eigenvalues not converged
     c_bands:  1 eigenvalues not converged
     c_bands:  1 eigenvalues not converged
     c_bands:  2 eigenvalues not converged
     ethr =  4.82E-06,  avg # of iterations =  9.7

     negative rho (up, down):  3.174E-04 0.000E+00

     total cpu time spent up to now is        4.6 secs

     total energy              =     -23.91251288 Ry
     estimated scf accuracy    <       0.00006472 Ry

     iteration #  7     ecut=    40.00 Ry     beta= 0.70
     Davidson diagonalization with overlap
     c_bands:  1 eigenvalues not converged
     c_bands:  2 eigenvalues not converged
     c_bands:  1 eigenvalues not converged
     ethr =  8.09E-07,  avg # of iterations =  9.6

     negative rho (up, down):  3.131E-04 0.000E+00

     total cpu time spent up to now is        5.2 secs

     total energy              =     -23.91255268 Ry
     estimated scf accuracy    <       0.00000521 Ry

     iteration #  8     ecut=    40.00 Ry     beta= 0.70
     Davidson diagonalization with overlap
     ethr =  6.52E-08,  avg # of iterations =  4.3

     negative rho (up, down):  2.842E-04 0.000E+00

     total cpu time spent up to now is        5.7 secs

     total energy              =     -23.91254916 Ry
     estimated scf accuracy    <       0.00001454 Ry

     iteration #  9     ecut=    40.00 Ry     beta= 0.70
     Davidson diagonalization with overlap
     ethr =  6.52E-08,  avg # of iterations =  2.2

     negative rho (up, down):  2.777E-04 0.000E+00

     total cpu time spent up to now is        6.1 secs

     total energy              =     -23.91254929 Ry
     estimated scf accuracy    <       0.00000177 Ry

     iteration # 10     ecut=    40.00 Ry     beta= 0.70
     Davidson diagonalization with overlap
     ethr =  2.21E-08,  avg # of iterations =  4.1

     negative rho (up, down):  2.770E-04 0.000E+00

     total cpu time spent up to now is        6.7 secs

     End of self-consistent calculation

          k = 0.0000 0.0000 0.0000 (  2289 PWs)   bands (ev):

   -21.2749  -9.3751  -4.8159  -4.8159   1.1525   1.8956   2.1281   4.1388

          k = 0.0000 0.0962 0.0000 (  2286 PWs)   bands (ev):

   -21.1110  -9.1788  -5.4648  -5.1543   1.3784   2.1223   2.3540   4.3630

          k = 0.0000 0.1925 0.0000 (  2280 PWs)   bands (ev):

   -20.6210  -8.5953  -7.0992  -5.9469   2.0557   2.8013   3.0313   5.0292

          k = 0.0000 0.2887 0.0000 (  2278 PWs)   bands (ev):

   -19.8106  -9.1948  -7.6438  -6.8269   3.1831   3.9234   4.1596   5.4984

          k = 0.0000 0.3849 0.0000 (  2272 PWs)   bands (ev):

   -18.6918 -11.3965  -7.5606  -6.3745   3.1743   4.7544   5.7105   6.0202

          k = 0.0000 0.4811 0.0000 (  2282 PWs)   bands (ev):

   -17.2957 -13.4961  -8.0337  -4.9507   1.0379   5.7382   6.7839   7.5452

          k = 0.0000-0.5774 0.0000 (  2260 PWs)   bands (ev):

   -16.0291 -15.0052  -8.1962  -4.1053  -0.0610   5.6607   9.1556   9.2628

          k = 0.0833 0.1443 0.0000 (  2291 PWs)   bands (ev):

   -20.7840  -8.7888  -6.4962  -5.8316   1.8301   2.5752   2.8058   4.8077

          k = 0.0833 0.2406 0.0000 (  2281 PWs)   bands (ev):

   -20.1338  -8.2032  -8.0201  -6.8296   2.7329   3.4785   3.7092   5.6894

          k = 0.0833 0.3368 0.0000 (  2266 PWs)   bands (ev):

   -19.1691 -10.2742  -7.7158  -6.9033   4.0838   4.1805   4.8601   5.0622

          k = 0.0833 0.4330 0.0000 (  2279 PWs)   bands (ev):

   -17.9087 -12.3959  -8.3507  -5.5226   1.9860   5.8710   6.5548   6.6407

          k = 0.0833 0.5292 0.0000 (  2273 PWs)   bands (ev):

   -16.4281 -14.3379  -8.6791  -4.2121   0.2156   6.3972   8.1081   8.8443

          k = 0.1667 0.2887 0.0000 (  2273 PWs)   bands (ev):

   -19.3293  -9.5310  -8.1913  -7.0822   3.8598   4.6032   4.6459   4.8385

          k = 0.1667 0.3849 0.0000 (  2279 PWs)   bands (ev):

   -18.2214 -11.2571  -9.2471  -5.8282   2.6961   5.4311   6.1640   6.4159

          k = 0.1667 0.4811 0.0000 (  2273 PWs)   bands (ev):

   -16.8453 -13.1677  -9.8224  -4.4002   0.7820   7.4301   8.1123   8.2717

          k = 0.1667 0.5774 0.0000 (  2254 PWs)   bands (ev):

   -15.6083 -14.6050 -10.0071  -3.5066  -0.2872   8.2022   9.7505   9.8879

          k = 0.2500 0.4330 0.0000 (  2269 PWs)   bands (ev):

   -16.9931 -12.2900 -10.7311  -4.4844   1.0803   7.2113   7.8430   8.2105

          k = 0.2500 0.5292 0.0000 (  2253 PWs)   bands (ev):

   -15.5701 -13.7120 -11.4380  -3.0974  -0.4413   9.0793   9.3692  10.3750

          k = 0.3333 0.5774 0.0000 (  2259 PWs)   bands (ev):

   -14.3521 -14.3521 -12.3370  -1.7403  -1.7403   8.8613  11.0909  11.0927

     the Fermi energy is    -1.8159 ev

!    total energy              =     -23.91255044 Ry
     estimated scf accuracy    <       0.00000003 Ry
     smearing contrib. (-TS)   =      -0.00981234 Ry
     internal energy E=F+TS    =     -23.90273810 Ry

     The total energy is F=E-TS. E is the sum of the following terms:
     one-electron contribution =    -157.37414301 Ry
     hartree contribution      =      80.14467185 Ry
     xc contribution           =      -8.30291402 Ry
     ewald contribution        =      61.62964709 Ry

     convergence has been achieved in  10 iterations

     Writing all to output data dir ../tmp/gr.save/

     init_run     :      0.46s CPU      0.49s WALL (       1 calls)
     electrons    :      5.16s CPU      5.99s WALL (       1 calls)

     Called by init_run:
     wfcinit      :      0.20s CPU      0.21s WALL (       1 calls)
     potinit      :      0.02s CPU      0.03s WALL (       1 calls)
     hinit0       :      0.22s CPU      0.23s WALL (       1 calls)

     Called by electrons:
     c_bands      :      4.41s CPU      5.16s WALL (      10 calls)
     sum_band     :      0.53s CPU      0.53s WALL (      10 calls)
     v_of_rho     :      0.13s CPU      0.13s WALL (      11 calls)
     newd         :      0.07s CPU      0.07s WALL (      11 calls)
     mix_rho      :      0.02s CPU      0.02s WALL (      10 calls)

     Called by c_bands:
     init_us_2    :      0.09s CPU      0.09s WALL (     399 calls)
     init_us_2:cp :      0.09s CPU      0.09s WALL (     399 calls)
     cegterg      :      4.20s CPU      4.31s WALL (     190 calls)

     Called by *egterg:
     cdiaghg      :      0.07s CPU      0.07s WALL (    1479 calls)
     h_psi        :      3.23s CPU      3.34s WALL (    1498 calls)
     s_psi        :      0.17s CPU      0.18s WALL (    1498 calls)
     g_psi        :      0.03s CPU      0.03s WALL (    1289 calls)

     Called by h_psi:
     h_psi:calbec :      0.18s CPU      0.19s WALL (    1498 calls)
     vloc_psi     :      2.86s CPU      2.95s WALL (    1498 calls)
     add_vuspsi   :      0.18s CPU      0.18s WALL (    1498 calls)

     General routines
     calbec       :      0.23s CPU      0.23s WALL (    1688 calls)
     fft          :      0.19s CPU      0.19s WALL (     121 calls)
     ffts         :      0.00s CPU      0.00s WALL (      10 calls)
     fftw         :      2.87s CPU      2.95s WALL (   13456 calls)


     PWSCF        :      5.66s CPU      7.21s WALL


   This run was terminated on:   0:28:52  25Aug2023            

=------------------------------------------------------------------------------=
   JOB DONE.
=------------------------------------------------------------------------------=
