
     Program PWSCF v.7.0 starts on 25Aug2023 at  0:29:34 

     This program is part of the open-source Quantum ESPRESSO suite
     for quantum simulation of materials; please cite
         "P. Giannozzi et al., J. Phys.:Condens. Matter 21 395502 (2009);
         "P. Giannozzi et al., J. Phys.:Condens. Matter 29 465901 (2017);
         "P. Giannozzi et al., J. Chem. Phys. 152 154105 (2020);
          URL http://www.quantum-espresso.org", 
     in publications or presentations arising from this work. More details at
     http://www.quantum-espresso.org/quote

     Serial version
     6267 MiB available memory on the printing compute node when the environment starts

     Waiting for input...
     Reading input from standard input

     Current dimensions of program PWSCF are:
     Max number of different atomic species (ntypx) = 10
     Max number of k-points (npk) =  40000
     Max angular momentum in pseudopotentials (lmaxx) =  4

     G-vector sticks info
     --------------------
     sticks:   dense  smooth     PW     G-vecs:    dense   smooth      PW
     Sum         241     241     85                18211    18211    3425

     Using Slab Decomposition



     bravais-lattice index     =            4
     lattice parameter (alat)  =       4.6561  a.u.
     unit-cell volume          =     532.1899 (a.u.)^3
     number of atoms/cell      =            2
     number of atomic types    =            1
     number of electrons       =         8.00
     number of Kohn-Sham states=            8
     kinetic-energy cutoff     =      40.0000  Ry
     charge density cutoff     =     160.0000  Ry
     scf convergence threshold =      1.0E-06
     mixing beta               =       0.7000
     number of iterations used =            8  plain     mixing
     Exchange-correlation= PBE
                           (   1   4   3   4   0   0   0)

     celldm(1)=   4.656107  celldm(2)=   0.000000  celldm(3)=   6.087896
     celldm(4)=   0.000000  celldm(5)=   0.000000  celldm(6)=   0.000000

     crystal axes: (cart. coord. in units of alat)
               a(1) = (   1.000000   0.000000   0.000000 )  
               a(2) = (  -0.500000   0.866025   0.000000 )  
               a(3) = (   0.000000   0.000000   6.087896 )  

     reciprocal axes: (cart. coord. in units 2 pi/alat)
               b(1) = (  1.000000  0.577350 -0.000000 )  
               b(2) = (  0.000000  1.154701  0.000000 )  
               b(3) = (  0.000000 -0.000000  0.164260 )  


     PseudoPot. # 1 for C  read from file:
     ../pseudo/C.pbe-n-rrkjus_psl.0.1.UPF
     MD5 check sum: 96a6a315177d77e6c95bf6fd3870f9e3
     Pseudo is Ultrasoft + core correction, Zval =  4.0
     Generated using &quot;atomic&quot; code by A. Dal Corso  v.6.3MaX
     Using radial grid of 1073 points,  4 beta functions with: 
                l(1) =   0
                l(2) =   0
                l(3) =   1
                l(4) =   1
     Q(r) pseudized with 0 coefficients 


     atomic species   valence    mass     pseudopotential
        C              4.00    12.01070     C ( 1.00)

     24 Sym. Ops., with inversion, found



   Cartesian axes

     site n.     atom                  positions (alat units)
         1           C   tau(   1) = (   0.0000000   0.5773503   3.0439478  )
         2           C   tau(   2) = (   0.5000000   0.2886751   3.0439478  )

     number of k points=    19  Gaussian smearing, width (Ry)=  0.0350
                       cart. coord. in units 2pi/alat
        k(    1) = (   0.0000000   0.0000000   0.0000000), wk =   0.0138889
        k(    2) = (   0.0000000   0.0962250   0.0000000), wk =   0.0833333
        k(    3) = (   0.0000000   0.1924501   0.0000000), wk =   0.0833333
        k(    4) = (   0.0000000   0.2886751   0.0000000), wk =   0.0833333
        k(    5) = (   0.0000000   0.3849002   0.0000000), wk =   0.0833333
        k(    6) = (   0.0000000   0.4811252   0.0000000), wk =   0.0833333
        k(    7) = (   0.0000000  -0.5773503   0.0000000), wk =   0.0416667
        k(    8) = (   0.0833333   0.1443376   0.0000000), wk =   0.0833333
        k(    9) = (   0.0833333   0.2405626   0.0000000), wk =   0.1666667
        k(   10) = (   0.0833333   0.3367877   0.0000000), wk =   0.1666667
        k(   11) = (   0.0833333   0.4330127   0.0000000), wk =   0.1666667
        k(   12) = (   0.0833333   0.5292377   0.0000000), wk =   0.1666667
        k(   13) = (   0.1666667   0.2886751   0.0000000), wk =   0.0833333
        k(   14) = (   0.1666667   0.3849002   0.0000000), wk =   0.1666667
        k(   15) = (   0.1666667   0.4811252   0.0000000), wk =   0.1666667
        k(   16) = (   0.1666667   0.5773503   0.0000000), wk =   0.0833333
        k(   17) = (   0.2500000   0.4330127   0.0000000), wk =   0.0833333
        k(   18) = (   0.2500000   0.5292377   0.0000000), wk =   0.1666667
        k(   19) = (   0.3333333   0.5773503   0.0000000), wk =   0.0277778

     Dense  grid:    18211 G-vectors     FFT dimensions: (  20,  20, 120)

     Estimated max dynamical RAM per process >      29.77 MB

     Check: negative core charge=   -0.000016

     Initial potential from superposition of free atoms

     starting charge       7.9999, renormalised to       8.0000

     negative rho (up, down):  1.028E-04 0.000E+00
     Starting wfcs are    8 randomized atomic wfcs

     total cpu time spent up to now is        0.6 secs

     Self-consistent Calculation

     iteration #  1     ecut=    40.00 Ry     beta= 0.70
     Davidson diagonalization with overlap
     ethr =  1.00E-02,  avg # of iterations =  7.9

     negative rho (up, down):  1.123E-05 0.000E+00

     total cpu time spent up to now is        1.3 secs

     total energy              =     -23.85769078 Ry
     estimated scf accuracy    <       0.11070925 Ry

     iteration #  2     ecut=    40.00 Ry     beta= 0.70
     Davidson diagonalization with overlap
     ethr =  1.38E-03,  avg # of iterations =  5.5

     negative rho (up, down):  3.689E-04 0.000E+00

     total cpu time spent up to now is        1.8 secs

     total energy              =     -23.89818973 Ry
     estimated scf accuracy    <       0.01504425 Ry

     iteration #  3     ecut=    40.00 Ry     beta= 0.70
     Davidson diagonalization with overlap
     c_bands:  1 eigenvalues not converged
     c_bands:  1 eigenvalues not converged
     ethr =  1.88E-04,  avg # of iterations = 14.5

     negative rho (up, down):  3.301E-04 0.000E+00

     total cpu time spent up to now is        2.8 secs

     total energy              =     -23.90971584 Ry
     estimated scf accuracy    <       0.00546754 Ry

     iteration #  4     ecut=    40.00 Ry     beta= 0.70
     Davidson diagonalization with overlap
     ethr =  6.83E-05,  avg # of iterations =  4.3

     negative rho (up, down):  5.079E-04 0.000E+00

     total cpu time spent up to now is        3.3 secs

     total energy              =     -23.90866269 Ry
     estimated scf accuracy    <       0.00263190 Ry

     iteration #  5     ecut=    40.00 Ry     beta= 0.70
     Davidson diagonalization with overlap
     c_bands:  1 eigenvalues not converged
     ethr =  3.29E-05,  avg # of iterations =  6.6

     negative rho (up, down):  4.314E-04 0.000E+00

     total cpu time spent up to now is        3.9 secs

     total energy              =     -23.90928910 Ry
     estimated scf accuracy    <       0.00132714 Ry

     iteration #  6     ecut=    40.00 Ry     beta= 0.70
     Davidson diagonalization with overlap
     ethr =  1.66E-05,  avg # of iterations =  3.4

     negative rho (up, down):  4.158E-04 0.000E+00

     total cpu time spent up to now is        4.3 secs

     total energy              =     -23.90936243 Ry
     estimated scf accuracy    <       0.00008271 Ry

     iteration #  7     ecut=    40.00 Ry     beta= 0.70
     Davidson diagonalization with overlap
     c_bands:  1 eigenvalues not converged
     c_bands:  1 eigenvalues not converged
     c_bands:  1 eigenvalues not converged
     ethr =  1.03E-06,  avg # of iterations = 12.1

     negative rho (up, down):  4.217E-04 0.000E+00

     total cpu time spent up to now is        5.2 secs

     total energy              =     -23.90950242 Ry
     estimated scf accuracy    <       0.00001142 Ry

     iteration #  8     ecut=    40.00 Ry     beta= 0.70
     Davidson diagonalization with overlap
     c_bands:  1 eigenvalues not converged
     ethr =  1.43E-07,  avg # of iterations =  5.1

     negative rho (up, down):  4.250E-04 0.000E+00

     total cpu time spent up to now is        5.7 secs

     total energy              =     -23.90950953 Ry
     estimated scf accuracy    <       0.00000210 Ry

     iteration #  9     ecut=    40.00 Ry     beta= 0.70
     Davidson diagonalization with overlap
     ethr =  2.62E-08,  avg # of iterations =  4.2

     negative rho (up, down):  4.236E-04 0.000E+00

     total cpu time spent up to now is        6.2 secs

     total energy              =     -23.90950992 Ry
     estimated scf accuracy    <       0.00000385 Ry

     iteration # 10     ecut=    40.00 Ry     beta= 0.70
     Davidson diagonalization with overlap
     ethr =  2.62E-08,  avg # of iterations =  1.9

     negative rho (up, down):  4.224E-04 0.000E+00

     total cpu time spent up to now is        6.6 secs

     End of self-consistent calculation

          k = 0.0000 0.0000 0.0000 (  2289 PWs)   bands (ev):

   -21.2549  -9.3559  -4.7958  -4.7958   1.1573   1.8998   2.1257   4.1394

          k = 0.0000 0.0962 0.0000 (  2286 PWs)   bands (ev):

   -21.0910  -9.1596  -5.4447  -5.1343   1.3832   2.1265   2.3514   4.3627

          k = 0.0000 0.1925 0.0000 (  2280 PWs)   bands (ev):

   -20.6010  -8.5761  -7.0791  -5.9268   2.0608   2.8056   3.0287   5.0303

          k = 0.0000 0.2887 0.0000 (  2278 PWs)   bands (ev):

   -19.7906  -9.1748  -7.6246  -6.8069   3.1885   3.9279   4.1566   5.5150

          k = 0.0000 0.3849 0.0000 (  2272 PWs)   bands (ev):

   -18.6718 -11.3765  -7.5406  -6.3553   3.1935   4.7603   5.5364   5.7115

          k = 0.0000 0.4811 0.0000 (  2282 PWs)   bands (ev):

   -17.2757 -13.4761  -8.0137  -4.9314   1.0573   5.7581   6.7907   7.5528

          k = 0.0000-0.5774 0.0000 (  2260 PWs)   bands (ev):

   -16.0091 -14.9851  -8.1761  -4.0860  -0.0416   5.6808   9.1638   9.2701

          k = 0.0833 0.1443 0.0000 (  2291 PWs)   bands (ev):

   -20.7641  -8.7696  -6.4762  -5.8116   1.8350   2.5795   2.8032   4.8091

          k = 0.0833 0.2406 0.0000 (  2281 PWs)   bands (ev):

   -20.1138  -8.1831  -8.0009  -6.8096   2.7382   3.4829   3.7064   5.6902

          k = 0.0833 0.3368 0.0000 (  2266 PWs)   bands (ev):

   -19.1491 -10.2542  -7.6958  -6.8841   4.0896   4.1996   4.8653   5.0592

          k = 0.0833 0.4330 0.0000 (  2279 PWs)   bands (ev):

   -17.8887 -12.3759  -8.3307  -5.5033   2.0054   5.8778   6.5724   6.6441

          k = 0.0833 0.5292 0.0000 (  2273 PWs)   bands (ev):

   -16.4081 -14.3179  -8.6591  -4.1928   0.2350   6.4172   8.1158   9.1112

          k = 0.1667 0.2887 0.0000 (  2273 PWs)   bands (ev):

   -19.3093  -9.5110  -8.1713  -7.0630   3.8655   4.6079   4.6656   4.8355

          k = 0.1667 0.3849 0.0000 (  2279 PWs)   bands (ev):

   -18.2014 -11.2370  -9.2270  -5.8089   2.7157   5.4374   6.1693   6.4124

          k = 0.1667 0.4811 0.0000 (  2273 PWs)   bands (ev):

   -16.8253 -13.1477  -9.8024  -4.3809   0.8015   7.4375   8.1188   8.2888

          k = 0.1667 0.5774 0.0000 (  2254 PWs)   bands (ev):

   -15.5883 -14.5850  -9.9870  -3.4873  -0.2678   8.2221   9.7602   9.8895

          k = 0.2500 0.4330 0.0000 (  2269 PWs)   bands (ev):

   -16.9731 -12.2700 -10.7110  -4.4651   1.0998   7.2185   7.8506   8.2068

          k = 0.2500 0.5292 0.0000 (  2253 PWs)   bands (ev):

   -15.5501 -13.6919 -11.4180  -3.0781  -0.4218   9.0956   9.3789  10.3875

          k = 0.3333 0.5774 0.0000 (  2259 PWs)   bands (ev):

   -14.3321 -14.3321 -12.3169  -1.7209  -1.7209   8.8795  11.1055  11.1062

     the Fermi energy is    -1.7210 ev

!    total energy              =     -23.90951009 Ry
     estimated scf accuracy    <       0.00000027 Ry
     smearing contrib. (-TS)   =      -0.00055005 Ry
     internal energy E=F+TS    =     -23.90896005 Ry

     The total energy is F=E-TS. E is the sum of the following terms:
     one-electron contribution =    -157.39569588 Ry
     hartree contribution      =      80.16087038 Ry
     xc contribution           =      -8.30378164 Ry
     ewald contribution        =      61.62964709 Ry

     convergence has been achieved in  10 iterations

     Writing all to output data dir ../tmp/gr.save/

     init_run     :      0.48s CPU      0.49s WALL (       1 calls)
     electrons    :      5.13s CPU      6.03s WALL (       1 calls)

     Called by init_run:
     wfcinit      :      0.21s CPU      0.21s WALL (       1 calls)
     potinit      :      0.03s CPU      0.03s WALL (       1 calls)
     hinit0       :      0.23s CPU      0.23s WALL (       1 calls)

     Called by electrons:
     c_bands      :      4.39s CPU      5.20s WALL (      10 calls)
     sum_band     :      0.52s CPU      0.53s WALL (      10 calls)
     v_of_rho     :      0.14s CPU      0.14s WALL (      11 calls)
     newd         :      0.07s CPU      0.07s WALL (      11 calls)
     mix_rho      :      0.02s CPU      0.02s WALL (      10 calls)

     Called by c_bands:
     init_us_2    :      0.08s CPU      0.09s WALL (     399 calls)
     init_us_2:cp :      0.08s CPU      0.09s WALL (     399 calls)
     cegterg      :      4.18s CPU      4.32s WALL (     190 calls)

     Called by *egterg:
     cdiaghg      :      0.07s CPU      0.07s WALL (    1435 calls)
     h_psi        :      3.21s CPU      3.34s WALL (    1454 calls)
     s_psi        :      0.17s CPU      0.18s WALL (    1454 calls)
     g_psi        :      0.03s CPU      0.03s WALL (    1245 calls)

     Called by h_psi:
     h_psi:calbec :      0.18s CPU      0.19s WALL (    1454 calls)
     vloc_psi     :      2.83s CPU      2.95s WALL (    1454 calls)
     add_vuspsi   :      0.18s CPU      0.18s WALL (    1454 calls)

     General routines
     calbec       :      0.23s CPU      0.23s WALL (    1644 calls)
     fft          :      0.20s CPU      0.20s WALL (     121 calls)
     ffts         :      0.00s CPU      0.00s WALL (      10 calls)
     fftw         :      2.84s CPU      2.95s WALL (   13544 calls)


     PWSCF        :      5.66s CPU      7.17s WALL


   This run was terminated on:   0:29:42  25Aug2023            

=------------------------------------------------------------------------------=
   JOB DONE.
=------------------------------------------------------------------------------=
