
     Program PWSCF v.7.0 starts on 25Aug2023 at  0:28:52 

     This program is part of the open-source Quantum ESPRESSO suite
     for quantum simulation of materials; please cite
         "P. Giannozzi et al., J. Phys.:Condens. Matter 21 395502 (2009);
         "P. Giannozzi et al., J. Phys.:Condens. Matter 29 465901 (2017);
         "P. Giannozzi et al., J. Chem. Phys. 152 154105 (2020);
          URL http://www.quantum-espresso.org", 
     in publications or presentations arising from this work. More details at
     http://www.quantum-espresso.org/quote

     Serial version
     6267 MiB available memory on the printing compute node when the environment starts

     Waiting for input...
     Reading input from standard input

     Current dimensions of program PWSCF are:
     Max number of different atomic species (ntypx) = 10
     Max number of k-points (npk) =  40000
     Max angular momentum in pseudopotentials (lmaxx) =  4

     G-vector sticks info
     --------------------
     sticks:   dense  smooth     PW     G-vecs:    dense   smooth      PW
     Sum         241     241     85                18211    18211    3425

     Using Slab Decomposition



     bravais-lattice index     =            4
     lattice parameter (alat)  =       4.6561  a.u.
     unit-cell volume          =     532.1899 (a.u.)^3
     number of atoms/cell      =            2
     number of atomic types    =            1
     number of electrons       =         8.00
     number of Kohn-Sham states=            8
     kinetic-energy cutoff     =      40.0000  Ry
     charge density cutoff     =     160.0000  Ry
     scf convergence threshold =      1.0E-06
     mixing beta               =       0.7000
     number of iterations used =            8  plain     mixing
     Exchange-correlation= PBE
                           (   1   4   3   4   0   0   0)

     celldm(1)=   4.656107  celldm(2)=   0.000000  celldm(3)=   6.087896
     celldm(4)=   0.000000  celldm(5)=   0.000000  celldm(6)=   0.000000

     crystal axes: (cart. coord. in units of alat)
               a(1) = (   1.000000   0.000000   0.000000 )  
               a(2) = (  -0.500000   0.866025   0.000000 )  
               a(3) = (   0.000000   0.000000   6.087896 )  

     reciprocal axes: (cart. coord. in units 2 pi/alat)
               b(1) = (  1.000000  0.577350 -0.000000 )  
               b(2) = (  0.000000  1.154701  0.000000 )  
               b(3) = (  0.000000 -0.000000  0.164260 )  


     PseudoPot. # 1 for C  read from file:
     ../pseudo/C.pbe-n-rrkjus_psl.0.1.UPF
     MD5 check sum: 96a6a315177d77e6c95bf6fd3870f9e3
     Pseudo is Ultrasoft + core correction, Zval =  4.0
     Generated using &quot;atomic&quot; code by A. Dal Corso  v.6.3MaX
     Using radial grid of 1073 points,  4 beta functions with: 
                l(1) =   0
                l(2) =   0
                l(3) =   1
                l(4) =   1
     Q(r) pseudized with 0 coefficients 


     atomic species   valence    mass     pseudopotential
        C              4.00    12.01070     C ( 1.00)

     24 Sym. Ops., with inversion, found



   Cartesian axes

     site n.     atom                  positions (alat units)
         1           C   tau(   1) = (   0.0000000   0.5773503   3.0439478  )
         2           C   tau(   2) = (   0.5000000   0.2886751   3.0439478  )

     number of k points=    19  Gaussian smearing, width (Ry)=  0.0050
                       cart. coord. in units 2pi/alat
        k(    1) = (   0.0000000   0.0000000   0.0000000), wk =   0.0138889
        k(    2) = (   0.0000000   0.0962250   0.0000000), wk =   0.0833333
        k(    3) = (   0.0000000   0.1924501   0.0000000), wk =   0.0833333
        k(    4) = (   0.0000000   0.2886751   0.0000000), wk =   0.0833333
        k(    5) = (   0.0000000   0.3849002   0.0000000), wk =   0.0833333
        k(    6) = (   0.0000000   0.4811252   0.0000000), wk =   0.0833333
        k(    7) = (   0.0000000  -0.5773503   0.0000000), wk =   0.0416667
        k(    8) = (   0.0833333   0.1443376   0.0000000), wk =   0.0833333
        k(    9) = (   0.0833333   0.2405626   0.0000000), wk =   0.1666667
        k(   10) = (   0.0833333   0.3367877   0.0000000), wk =   0.1666667
        k(   11) = (   0.0833333   0.4330127   0.0000000), wk =   0.1666667
        k(   12) = (   0.0833333   0.5292377   0.0000000), wk =   0.1666667
        k(   13) = (   0.1666667   0.2886751   0.0000000), wk =   0.0833333
        k(   14) = (   0.1666667   0.3849002   0.0000000), wk =   0.1666667
        k(   15) = (   0.1666667   0.4811252   0.0000000), wk =   0.1666667
        k(   16) = (   0.1666667   0.5773503   0.0000000), wk =   0.0833333
        k(   17) = (   0.2500000   0.4330127   0.0000000), wk =   0.0833333
        k(   18) = (   0.2500000   0.5292377   0.0000000), wk =   0.1666667
        k(   19) = (   0.3333333   0.5773503   0.0000000), wk =   0.0277778

     Dense  grid:    18211 G-vectors     FFT dimensions: (  20,  20, 120)

     Estimated max dynamical RAM per process >      29.77 MB

     Check: negative core charge=   -0.000016

     Initial potential from superposition of free atoms

     starting charge       7.9999, renormalised to       8.0000

     negative rho (up, down):  1.028E-04 0.000E+00
     Starting wfcs are    8 randomized atomic wfcs

     total cpu time spent up to now is        0.7 secs

     Self-consistent Calculation

     iteration #  1     ecut=    40.00 Ry     beta= 0.70
     Davidson diagonalization with overlap
     ethr =  1.00E-02,  avg # of iterations =  7.9

     negative rho (up, down):  1.123E-05 0.000E+00

     total cpu time spent up to now is        1.3 secs

     total energy              =     -23.85722019 Ry
     estimated scf accuracy    <       0.11071112 Ry

     iteration #  2     ecut=    40.00 Ry     beta= 0.70
     Davidson diagonalization with overlap
     ethr =  1.38E-03,  avg # of iterations =  5.5

     negative rho (up, down):  3.688E-04 0.000E+00

     total cpu time spent up to now is        1.8 secs

     total energy              =     -23.89772534 Ry
     estimated scf accuracy    <       0.01504143 Ry

     iteration #  3     ecut=    40.00 Ry     beta= 0.70
     Davidson diagonalization with overlap
     c_bands:  1 eigenvalues not converged
     c_bands:  1 eigenvalues not converged
     c_bands:  1 eigenvalues not converged
     ethr =  1.88E-04,  avg # of iterations = 14.5

     negative rho (up, down):  3.300E-04 0.000E+00

     total cpu time spent up to now is        2.9 secs

     total energy              =     -23.90924487 Ry
     estimated scf accuracy    <       0.00546400 Ry

     iteration #  4     ecut=    40.00 Ry     beta= 0.70
     Davidson diagonalization with overlap
     ethr =  6.83E-05,  avg # of iterations =  4.2

     negative rho (up, down):  5.065E-04 0.000E+00

     total cpu time spent up to now is        3.3 secs

     total energy              =     -23.90819303 Ry
     estimated scf accuracy    <       0.00263139 Ry

     iteration #  5     ecut=    40.00 Ry     beta= 0.70
     Davidson diagonalization with overlap
     c_bands:  1 eigenvalues not converged
     ethr =  3.29E-05,  avg # of iterations =  6.8

     negative rho (up, down):  4.316E-04 0.000E+00

     total cpu time spent up to now is        3.9 secs

     total energy              =     -23.90881473 Ry
     estimated scf accuracy    <       0.00140226 Ry

     iteration #  6     ecut=    40.00 Ry     beta= 0.70
     Davidson diagonalization with overlap
     ethr =  1.75E-05,  avg # of iterations =  3.3

     negative rho (up, down):  4.162E-04 0.000E+00

     total cpu time spent up to now is        4.3 secs

     total energy              =     -23.90888638 Ry
     estimated scf accuracy    <       0.00008755 Ry

     iteration #  7     ecut=    40.00 Ry     beta= 0.70
     Davidson diagonalization with overlap
     c_bands:  1 eigenvalues not converged
     c_bands:  1 eigenvalues not converged
     c_bands:  1 eigenvalues not converged
     ethr =  1.09E-06,  avg # of iterations = 11.9

     negative rho (up, down):  4.216E-04 0.000E+00

     total cpu time spent up to now is        5.2 secs

     total energy              =     -23.90903272 Ry
     estimated scf accuracy    <       0.00001105 Ry

     iteration #  8     ecut=    40.00 Ry     beta= 0.70
     Davidson diagonalization with overlap
     c_bands:  1 eigenvalues not converged
     c_bands:  1 eigenvalues not converged
     ethr =  1.38E-07,  avg # of iterations =  5.3

     negative rho (up, down):  4.232E-04 0.000E+00

     total cpu time spent up to now is        5.7 secs

     total energy              =     -23.90903871 Ry
     estimated scf accuracy    <       0.00000276 Ry

     iteration #  9     ecut=    40.00 Ry     beta= 0.70
     Davidson diagonalization with overlap
     ethr =  3.45E-08,  avg # of iterations =  4.1

     negative rho (up, down):  4.224E-04 0.000E+00

     total cpu time spent up to now is        6.1 secs

     total energy              =     -23.90903993 Ry
     estimated scf accuracy    <       0.00000102 Ry

     iteration # 10     ecut=    40.00 Ry     beta= 0.70
     Davidson diagonalization with overlap
     ethr =  1.27E-08,  avg # of iterations =  2.1

     negative rho (up, down):  4.223E-04 0.000E+00

     total cpu time spent up to now is        6.5 secs

     End of self-consistent calculation

          k = 0.0000 0.0000 0.0000 (  2289 PWs)   bands (ev):

   -21.2505  -9.3523  -4.7909  -4.7909   1.1571   1.8992   2.1254   4.1391

          k = 0.0000 0.0962 0.0000 (  2286 PWs)   bands (ev):

   -21.0866  -9.1560  -5.4399  -5.1294   1.3830   2.1259   2.3511   4.3624

          k = 0.0000 0.1925 0.0000 (  2280 PWs)   bands (ev):

   -20.5965  -8.5725  -7.0744  -5.9220   2.0605   2.8051   3.0284   5.0300

          k = 0.0000 0.2887 0.0000 (  2278 PWs)   bands (ev):

   -19.7861  -9.1701  -7.6210  -6.8021   3.1883   3.9274   4.1563   5.5187

          k = 0.0000 0.3849 0.0000 (  2272 PWs)   bands (ev):

   -18.6673 -11.3718  -7.5358  -6.3516   3.1974   4.7602   5.5361   5.7116

          k = 0.0000 0.4811 0.0000 (  2282 PWs)   bands (ev):

   -17.2712 -13.4715  -8.0089  -4.9277   1.0610   5.7625   6.7907   7.5542

          k = 0.0000-0.5774 0.0000 (  2260 PWs)   bands (ev):

   -16.0046 -14.9805  -8.1713  -4.0822  -0.0380   5.6851   9.1641   9.2708

          k = 0.0833 0.1443 0.0000 (  2291 PWs)   bands (ev):

   -20.7596  -8.7660  -6.4713  -5.8068   1.8348   2.5789   2.8029   4.8086

          k = 0.0833 0.2406 0.0000 (  2281 PWs)   bands (ev):

   -20.1093  -8.1784  -7.9973  -6.8047   2.7380   3.4824   3.7061   5.6900

          k = 0.0833 0.3368 0.0000 (  2266 PWs)   bands (ev):

   -19.1446 -10.2495  -7.6910  -6.8804   4.0894   4.2033   4.8650   5.0589

          k = 0.0833 0.4330 0.0000 (  2279 PWs)   bands (ev):

   -17.8841 -12.3713  -8.3259  -5.4996   2.0092   5.8778   6.5763   6.6447

          k = 0.0833 0.5292 0.0000 (  2273 PWs)   bands (ev):

   -16.4036 -14.3133  -8.6543  -4.1891   0.2388   6.4216   8.1158   9.1108

          k = 0.1667 0.2887 0.0000 (  2273 PWs)   bands (ev):

   -19.3048  -9.5063  -8.1665  -7.0593   3.8653   4.6074   4.6696   4.8352

          k = 0.1667 0.3849 0.0000 (  2279 PWs)   bands (ev):

   -18.1969 -11.2324  -9.2223  -5.8052   2.7196   5.4373   6.1688   6.4121

          k = 0.1667 0.4811 0.0000 (  2273 PWs)   bands (ev):

   -16.8208 -13.1430  -9.7976  -4.3772   0.8053   7.4376   8.1185   8.2925

          k = 0.1667 0.5774 0.0000 (  2254 PWs)   bands (ev):

   -15.5838 -14.5804  -9.9823  -3.4835  -0.2641   8.2265   9.7608   9.8903

          k = 0.2500 0.4330 0.0000 (  2269 PWs)   bands (ev):

   -16.9686 -12.2654 -10.7063  -4.4613   1.1037   7.2185   7.8504   8.2064

          k = 0.2500 0.5292 0.0000 (  2253 PWs)   bands (ev):

   -15.5456 -13.6873 -11.4133  -3.0743  -0.4180   9.0974   9.3789  10.3834

          k = 0.3333 0.5774 0.0000 (  2259 PWs)   bands (ev):

   -14.3275 -14.3275 -12.3122  -1.7171  -1.7171   8.8817  11.1078  11.1083

     the Fermi energy is    -1.7171 ev

!    total energy              =     -23.90904013 Ry
     estimated scf accuracy    <          6.0E-09 Ry
     smearing contrib. (-TS)   =      -0.00007836 Ry
     internal energy E=F+TS    =     -23.90896177 Ry

     The total energy is F=E-TS. E is the sum of the following terms:
     one-electron contribution =    -157.39344839 Ry
     hartree contribution      =      80.15828685 Ry
     xc contribution           =      -8.30344732 Ry
     ewald contribution        =      61.62964709 Ry

     convergence has been achieved in  10 iterations

     Writing all to output data dir ../tmp/gr.save/

     init_run     :      0.49s CPU      0.51s WALL (       1 calls)
     electrons    :      5.16s CPU      5.88s WALL (       1 calls)

     Called by init_run:
     wfcinit      :      0.21s CPU      0.22s WALL (       1 calls)
     potinit      :      0.03s CPU      0.03s WALL (       1 calls)
     hinit0       :      0.24s CPU      0.24s WALL (       1 calls)

     Called by electrons:
     c_bands      :      4.43s CPU      5.09s WALL (      10 calls)
     sum_band     :      0.51s CPU      0.51s WALL (      10 calls)
     v_of_rho     :      0.13s CPU      0.13s WALL (      11 calls)
     newd         :      0.07s CPU      0.07s WALL (      11 calls)
     mix_rho      :      0.02s CPU      0.02s WALL (      10 calls)

     Called by c_bands:
     init_us_2    :      0.09s CPU      0.09s WALL (     399 calls)
     init_us_2:cp :      0.09s CPU      0.09s WALL (     399 calls)
     cegterg      :      4.20s CPU      4.28s WALL (     190 calls)

     Called by *egterg:
     cdiaghg      :      0.07s CPU      0.07s WALL (    1439 calls)
     h_psi        :      3.25s CPU      3.31s WALL (    1458 calls)
     s_psi        :      0.17s CPU      0.18s WALL (    1458 calls)
     g_psi        :      0.03s CPU      0.03s WALL (    1249 calls)

     Called by h_psi:
     h_psi:calbec :      0.18s CPU      0.18s WALL (    1458 calls)
     vloc_psi     :      2.87s CPU      2.94s WALL (    1458 calls)
     add_vuspsi   :      0.17s CPU      0.18s WALL (    1458 calls)

     General routines
     calbec       :      0.22s CPU      0.23s WALL (    1648 calls)
     fft          :      0.20s CPU      0.20s WALL (     121 calls)
     ffts         :      0.00s CPU      0.00s WALL (      10 calls)
     fftw         :      2.88s CPU      2.94s WALL (   13488 calls)


     PWSCF        :      5.68s CPU      7.04s WALL


   This run was terminated on:   0:28:59  25Aug2023            

=------------------------------------------------------------------------------=
   JOB DONE.
=------------------------------------------------------------------------------=
