
     Program PWSCF v.7.0 starts on 25Aug2023 at  0:29: 6 

     This program is part of the open-source Quantum ESPRESSO suite
     for quantum simulation of materials; please cite
         "P. Giannozzi et al., J. Phys.:Condens. Matter 21 395502 (2009);
         "P. Giannozzi et al., J. Phys.:Condens. Matter 29 465901 (2017);
         "P. Giannozzi et al., J. Chem. Phys. 152 154105 (2020);
          URL http://www.quantum-espresso.org", 
     in publications or presentations arising from this work. More details at
     http://www.quantum-espresso.org/quote

     Serial version
     6263 MiB available memory on the printing compute node when the environment starts

     Waiting for input...
     Reading input from standard input

     Current dimensions of program PWSCF are:
     Max number of different atomic species (ntypx) = 10
     Max number of k-points (npk) =  40000
     Max angular momentum in pseudopotentials (lmaxx) =  4

     G-vector sticks info
     --------------------
     sticks:   dense  smooth     PW     G-vecs:    dense   smooth      PW
     Sum         241     241     85                18211    18211    3425

     Using Slab Decomposition



     bravais-lattice index     =            4
     lattice parameter (alat)  =       4.6561  a.u.
     unit-cell volume          =     532.1899 (a.u.)^3
     number of atoms/cell      =            2
     number of atomic types    =            1
     number of electrons       =         8.00
     number of Kohn-Sham states=            8
     kinetic-energy cutoff     =      40.0000  Ry
     charge density cutoff     =     160.0000  Ry
     scf convergence threshold =      1.0E-06
     mixing beta               =       0.7000
     number of iterations used =            8  plain     mixing
     Exchange-correlation= PBE
                           (   1   4   3   4   0   0   0)

     celldm(1)=   4.656107  celldm(2)=   0.000000  celldm(3)=   6.087896
     celldm(4)=   0.000000  celldm(5)=   0.000000  celldm(6)=   0.000000

     crystal axes: (cart. coord. in units of alat)
               a(1) = (   1.000000   0.000000   0.000000 )  
               a(2) = (  -0.500000   0.866025   0.000000 )  
               a(3) = (   0.000000   0.000000   6.087896 )  

     reciprocal axes: (cart. coord. in units 2 pi/alat)
               b(1) = (  1.000000  0.577350 -0.000000 )  
               b(2) = (  0.000000  1.154701  0.000000 )  
               b(3) = (  0.000000 -0.000000  0.164260 )  


     PseudoPot. # 1 for C  read from file:
     ../pseudo/C.pbe-n-rrkjus_psl.0.1.UPF
     MD5 check sum: 96a6a315177d77e6c95bf6fd3870f9e3
     Pseudo is Ultrasoft + core correction, Zval =  4.0
     Generated using &quot;atomic&quot; code by A. Dal Corso  v.6.3MaX
     Using radial grid of 1073 points,  4 beta functions with: 
                l(1) =   0
                l(2) =   0
                l(3) =   1
                l(4) =   1
     Q(r) pseudized with 0 coefficients 


     atomic species   valence    mass     pseudopotential
        C              4.00    12.01070     C ( 1.00)

     24 Sym. Ops., with inversion, found



   Cartesian axes

     site n.     atom                  positions (alat units)
         1           C   tau(   1) = (   0.0000000   0.5773503   3.0439478  )
         2           C   tau(   2) = (   0.5000000   0.2886751   3.0439478  )

     number of k points=    19  Gaussian smearing, width (Ry)=  0.0150
                       cart. coord. in units 2pi/alat
        k(    1) = (   0.0000000   0.0000000   0.0000000), wk =   0.0138889
        k(    2) = (   0.0000000   0.0962250   0.0000000), wk =   0.0833333
        k(    3) = (   0.0000000   0.1924501   0.0000000), wk =   0.0833333
        k(    4) = (   0.0000000   0.2886751   0.0000000), wk =   0.0833333
        k(    5) = (   0.0000000   0.3849002   0.0000000), wk =   0.0833333
        k(    6) = (   0.0000000   0.4811252   0.0000000), wk =   0.0833333
        k(    7) = (   0.0000000  -0.5773503   0.0000000), wk =   0.0416667
        k(    8) = (   0.0833333   0.1443376   0.0000000), wk =   0.0833333
        k(    9) = (   0.0833333   0.2405626   0.0000000), wk =   0.1666667
        k(   10) = (   0.0833333   0.3367877   0.0000000), wk =   0.1666667
        k(   11) = (   0.0833333   0.4330127   0.0000000), wk =   0.1666667
        k(   12) = (   0.0833333   0.5292377   0.0000000), wk =   0.1666667
        k(   13) = (   0.1666667   0.2886751   0.0000000), wk =   0.0833333
        k(   14) = (   0.1666667   0.3849002   0.0000000), wk =   0.1666667
        k(   15) = (   0.1666667   0.4811252   0.0000000), wk =   0.1666667
        k(   16) = (   0.1666667   0.5773503   0.0000000), wk =   0.0833333
        k(   17) = (   0.2500000   0.4330127   0.0000000), wk =   0.0833333
        k(   18) = (   0.2500000   0.5292377   0.0000000), wk =   0.1666667
        k(   19) = (   0.3333333   0.5773503   0.0000000), wk =   0.0277778

     Dense  grid:    18211 G-vectors     FFT dimensions: (  20,  20, 120)

     Estimated max dynamical RAM per process >      29.77 MB

     Check: negative core charge=   -0.000016

     Initial potential from superposition of free atoms

     starting charge       7.9999, renormalised to       8.0000

     negative rho (up, down):  1.028E-04 0.000E+00
     Starting wfcs are    8 randomized atomic wfcs

     total cpu time spent up to now is        0.6 secs

     Self-consistent Calculation

     iteration #  1     ecut=    40.00 Ry     beta= 0.70
     Davidson diagonalization with overlap
     ethr =  1.00E-02,  avg # of iterations =  7.9

     negative rho (up, down):  1.123E-05 0.000E+00

     total cpu time spent up to now is        1.3 secs

     total energy              =     -23.85737726 Ry
     estimated scf accuracy    <       0.11070961 Ry

     iteration #  2     ecut=    40.00 Ry     beta= 0.70
     Davidson diagonalization with overlap
     ethr =  1.38E-03,  avg # of iterations =  5.5

     negative rho (up, down):  3.689E-04 0.000E+00

     total cpu time spent up to now is        1.9 secs

     total energy              =     -23.89787755 Ry
     estimated scf accuracy    <       0.01504362 Ry

     iteration #  3     ecut=    40.00 Ry     beta= 0.70
     Davidson diagonalization with overlap
     c_bands:  1 eigenvalues not converged
     c_bands:  1 eigenvalues not converged
     ethr =  1.88E-04,  avg # of iterations = 14.5

     negative rho (up, down):  3.301E-04 0.000E+00

     total cpu time spent up to now is        3.0 secs

     total energy              =     -23.90940200 Ry
     estimated scf accuracy    <       0.00546641 Ry

     iteration #  4     ecut=    40.00 Ry     beta= 0.70
     Davidson diagonalization with overlap
     ethr =  6.83E-05,  avg # of iterations =  4.3

     negative rho (up, down):  5.079E-04 0.000E+00

     total cpu time spent up to now is        3.5 secs

     total energy              =     -23.90834942 Ry
     estimated scf accuracy    <       0.00263109 Ry

     iteration #  5     ecut=    40.00 Ry     beta= 0.70
     Davidson diagonalization with overlap
     c_bands:  1 eigenvalues not converged
     ethr =  3.29E-05,  avg # of iterations =  6.6

     negative rho (up, down):  4.314E-04 0.000E+00

     total cpu time spent up to now is        4.1 secs

     total energy              =     -23.90897558 Ry
     estimated scf accuracy    <       0.00132720 Ry

     iteration #  6     ecut=    40.00 Ry     beta= 0.70
     Davidson diagonalization with overlap
     ethr =  1.66E-05,  avg # of iterations =  3.4

     negative rho (up, down):  4.158E-04 0.000E+00

     total cpu time spent up to now is        4.5 secs

     total energy              =     -23.90904893 Ry
     estimated scf accuracy    <       0.00008272 Ry

     iteration #  7     ecut=    40.00 Ry     beta= 0.70
     Davidson diagonalization with overlap
     c_bands:  1 eigenvalues not converged
     c_bands:  1 eigenvalues not converged
     c_bands:  1 eigenvalues not converged
     ethr =  1.03E-06,  avg # of iterations = 11.9

     negative rho (up, down):  4.217E-04 0.000E+00

     total cpu time spent up to now is        5.4 secs

     total energy              =     -23.90918891 Ry
     estimated scf accuracy    <       0.00001134 Ry

     iteration #  8     ecut=    40.00 Ry     beta= 0.70
     Davidson diagonalization with overlap
     c_bands:  1 eigenvalues not converged
     ethr =  1.42E-07,  avg # of iterations =  5.2

     negative rho (up, down):  4.249E-04 0.000E+00

     total cpu time spent up to now is        5.9 secs

     total energy              =     -23.90919596 Ry
     estimated scf accuracy    <       0.00000210 Ry

     iteration #  9     ecut=    40.00 Ry     beta= 0.70
     Davidson diagonalization with overlap
     ethr =  2.63E-08,  avg # of iterations =  4.3

     negative rho (up, down):  4.237E-04 0.000E+00

     total cpu time spent up to now is        6.4 secs

     total energy              =     -23.90919645 Ry
     estimated scf accuracy    <       0.00000387 Ry

     iteration # 10     ecut=    40.00 Ry     beta= 0.70
     Davidson diagonalization with overlap
     ethr =  2.63E-08,  avg # of iterations =  1.7

     negative rho (up, down):  4.223E-04 0.000E+00

     total cpu time spent up to now is        6.8 secs

     End of self-consistent calculation

          k = 0.0000 0.0000 0.0000 (  2289 PWs)   bands (ev):

   -21.2556  -9.3564  -4.7967  -4.7967   1.1574   1.8999   2.1257   4.1395

          k = 0.0000 0.0962 0.0000 (  2286 PWs)   bands (ev):

   -21.0917  -9.1602  -5.4456  -5.1351   1.3833   2.1266   2.3515   4.3629

          k = 0.0000 0.1925 0.0000 (  2280 PWs)   bands (ev):

   -20.6017  -8.5767  -7.0800  -5.9277   2.0608   2.8057   3.0287   5.0303

          k = 0.0000 0.2887 0.0000 (  2278 PWs)   bands (ev):

   -19.7913  -9.1756  -7.6251  -6.8078   3.1885   3.9280   4.1566   5.5144

          k = 0.0000 0.3849 0.0000 (  2272 PWs)   bands (ev):

   -18.6726 -11.3773  -7.5414  -6.3558   3.1930   4.7603   5.5364   5.7115

          k = 0.0000 0.4811 0.0000 (  2282 PWs)   bands (ev):

   -17.2765 -13.4769  -8.0146  -4.9319   1.0567   5.7574   6.7907   7.5528

          k = 0.0000-0.5774 0.0000 (  2260 PWs)   bands (ev):

   -16.0098 -14.9859  -8.1770  -4.0865  -0.0422   5.6801   9.1638   9.2701

          k = 0.0833 0.1443 0.0000 (  2291 PWs)   bands (ev):

   -20.7648  -8.7702  -6.4770  -5.8125   1.8351   2.5797   2.8032   4.8091

          k = 0.0833 0.2406 0.0000 (  2281 PWs)   bands (ev):

   -20.1145  -8.1839  -8.0015  -6.8104   2.7382   3.4830   3.7064   5.6901

          k = 0.0833 0.3368 0.0000 (  2266 PWs)   bands (ev):

   -19.1498 -10.2549  -7.6966  -6.8846   4.0896   4.1990   4.8653   5.0593

          k = 0.0833 0.4330 0.0000 (  2279 PWs)   bands (ev):

   -17.8894 -12.3767  -8.3315  -5.5039   2.0048   5.8778   6.5717   6.6442

          k = 0.0833 0.5292 0.0000 (  2273 PWs)   bands (ev):

   -16.4089 -14.3187  -8.6599  -4.1934   0.2345   6.4165   8.1158   9.1112

          k = 0.1667 0.2887 0.0000 (  2273 PWs)   bands (ev):

   -19.3100  -9.5118  -8.1721  -7.0635   3.8655   4.6080   4.6650   4.8355

          k = 0.1667 0.3849 0.0000 (  2279 PWs)   bands (ev):

   -18.2022 -11.2378  -9.2278  -5.8095   2.7151   5.4375   6.1694   6.4125

          k = 0.1667 0.4811 0.0000 (  2273 PWs)   bands (ev):

   -16.8260 -13.1484  -9.8032  -4.3815   0.8009   7.4375   8.1188   8.2881

          k = 0.1667 0.5774 0.0000 (  2254 PWs)   bands (ev):

   -15.5891 -14.5858  -9.9878  -3.4879  -0.2684   8.2214   9.7602   9.8901

          k = 0.2500 0.4330 0.0000 (  2269 PWs)   bands (ev):

   -16.9739 -12.2708 -10.7118  -4.4656   1.0992   7.2185   7.8506   8.2068

          k = 0.2500 0.5292 0.0000 (  2253 PWs)   bands (ev):

   -15.5509 -13.6927 -11.4188  -3.0786  -0.4224   9.0954   9.3788  10.3875

          k = 0.3333 0.5774 0.0000 (  2259 PWs)   bands (ev):

   -14.3329 -14.3329 -12.3177  -1.7215  -1.7215   8.8792  11.1053  11.1059

     the Fermi energy is    -1.7215 ev

!    total energy              =     -23.90919653 Ry
     estimated scf accuracy    <       0.00000034 Ry
     smearing contrib. (-TS)   =      -0.00023508 Ry
     internal energy E=F+TS    =     -23.90896146 Ry

     The total energy is F=E-TS. E is the sum of the following terms:
     one-electron contribution =    -157.39588912 Ry
     hartree contribution      =      80.16108318 Ry
     xc contribution           =      -8.30380260 Ry
     ewald contribution        =      61.62964709 Ry

     convergence has been achieved in  10 iterations

     Writing all to output data dir ../tmp/gr.save/

     init_run     :      0.46s CPU      0.48s WALL (       1 calls)
     electrons    :      5.41s CPU      6.22s WALL (       1 calls)

     Called by init_run:
     wfcinit      :      0.20s CPU      0.21s WALL (       1 calls)
     potinit      :      0.02s CPU      0.03s WALL (       1 calls)
     hinit0       :      0.22s CPU      0.23s WALL (       1 calls)

     Called by electrons:
     c_bands      :      4.67s CPU      5.40s WALL (      10 calls)
     sum_band     :      0.52s CPU      0.53s WALL (      10 calls)
     v_of_rho     :      0.13s CPU      0.14s WALL (      11 calls)
     newd         :      0.07s CPU      0.07s WALL (      11 calls)
     mix_rho      :      0.02s CPU      0.02s WALL (      10 calls)

     Called by c_bands:
     init_us_2    :      0.09s CPU      0.09s WALL (     399 calls)
     init_us_2:cp :      0.09s CPU      0.09s WALL (     399 calls)
     cegterg      :      4.44s CPU      4.50s WALL (     190 calls)

     Called by *egterg:
     cdiaghg      :      0.07s CPU      0.07s WALL (    1432 calls)
     h_psi        :      3.41s CPU      3.46s WALL (    1451 calls)
     s_psi        :      0.19s CPU      0.19s WALL (    1451 calls)
     g_psi        :      0.03s CPU      0.03s WALL (    1242 calls)

     Called by h_psi:
     h_psi:calbec :      0.20s CPU      0.20s WALL (    1451 calls)
     vloc_psi     :      3.00s CPU      3.05s WALL (    1451 calls)
     add_vuspsi   :      0.19s CPU      0.19s WALL (    1451 calls)

     General routines
     calbec       :      0.25s CPU      0.25s WALL (    1641 calls)
     fft          :      0.19s CPU      0.19s WALL (     121 calls)
     ffts         :      0.00s CPU      0.00s WALL (      10 calls)
     fftw         :      2.97s CPU      3.03s WALL (   13538 calls)


     PWSCF        :      5.92s CPU      7.40s WALL


   This run was terminated on:   0:29:13  25Aug2023            

=------------------------------------------------------------------------------=
   JOB DONE.
=------------------------------------------------------------------------------=
