
     Program PWSCF v.7.0 starts on 25Aug2023 at  0:29:56 

     This program is part of the open-source Quantum ESPRESSO suite
     for quantum simulation of materials; please cite
         "P. Giannozzi et al., J. Phys.:Condens. Matter 21 395502 (2009);
         "P. Giannozzi et al., J. Phys.:Condens. Matter 29 465901 (2017);
         "P. Giannozzi et al., J. Chem. Phys. 152 154105 (2020);
          URL http://www.quantum-espresso.org", 
     in publications or presentations arising from this work. More details at
     http://www.quantum-espresso.org/quote

     Serial version
     6259 MiB available memory on the printing compute node when the environment starts

     Waiting for input...
     Reading input from standard input

     Current dimensions of program PWSCF are:
     Max number of different atomic species (ntypx) = 10
     Max number of k-points (npk) =  40000
     Max angular momentum in pseudopotentials (lmaxx) =  4

     G-vector sticks info
     --------------------
     sticks:   dense  smooth     PW     G-vecs:    dense   smooth      PW
     Sum         241     241     85                18211    18211    3425

     Using Slab Decomposition



     bravais-lattice index     =            4
     lattice parameter (alat)  =       4.6561  a.u.
     unit-cell volume          =     532.1899 (a.u.)^3
     number of atoms/cell      =            2
     number of atomic types    =            1
     number of electrons       =         8.00
     number of Kohn-Sham states=            8
     kinetic-energy cutoff     =      40.0000  Ry
     charge density cutoff     =     160.0000  Ry
     scf convergence threshold =      1.0E-06
     mixing beta               =       0.7000
     number of iterations used =            8  plain     mixing
     Exchange-correlation= PBE
                           (   1   4   3   4   0   0   0)

     celldm(1)=   4.656107  celldm(2)=   0.000000  celldm(3)=   6.087896
     celldm(4)=   0.000000  celldm(5)=   0.000000  celldm(6)=   0.000000

     crystal axes: (cart. coord. in units of alat)
               a(1) = (   1.000000   0.000000   0.000000 )  
               a(2) = (  -0.500000   0.866025   0.000000 )  
               a(3) = (   0.000000   0.000000   6.087896 )  

     reciprocal axes: (cart. coord. in units 2 pi/alat)
               b(1) = (  1.000000  0.577350 -0.000000 )  
               b(2) = (  0.000000  1.154701  0.000000 )  
               b(3) = (  0.000000 -0.000000  0.164260 )  


     PseudoPot. # 1 for C  read from file:
     ../pseudo/C.pbe-n-rrkjus_psl.0.1.UPF
     MD5 check sum: 96a6a315177d77e6c95bf6fd3870f9e3
     Pseudo is Ultrasoft + core correction, Zval =  4.0
     Generated using &quot;atomic&quot; code by A. Dal Corso  v.6.3MaX
     Using radial grid of 1073 points,  4 beta functions with: 
                l(1) =   0
                l(2) =   0
                l(3) =   1
                l(4) =   1
     Q(r) pseudized with 0 coefficients 


     atomic species   valence    mass     pseudopotential
        C              4.00    12.01070     C ( 1.00)

     24 Sym. Ops., with inversion, found



   Cartesian axes

     site n.     atom                  positions (alat units)
         1           C   tau(   1) = (   0.0000000   0.5773503   3.0439478  )
         2           C   tau(   2) = (   0.5000000   0.2886751   3.0439478  )

     number of k points=    19  Methfessel-Paxton smearing, width (Ry)=  0.0100
                       cart. coord. in units 2pi/alat
        k(    1) = (   0.0000000   0.0000000   0.0000000), wk =   0.0138889
        k(    2) = (   0.0000000   0.0962250   0.0000000), wk =   0.0833333
        k(    3) = (   0.0000000   0.1924501   0.0000000), wk =   0.0833333
        k(    4) = (   0.0000000   0.2886751   0.0000000), wk =   0.0833333
        k(    5) = (   0.0000000   0.3849002   0.0000000), wk =   0.0833333
        k(    6) = (   0.0000000   0.4811252   0.0000000), wk =   0.0833333
        k(    7) = (   0.0000000  -0.5773503   0.0000000), wk =   0.0416667
        k(    8) = (   0.0833333   0.1443376   0.0000000), wk =   0.0833333
        k(    9) = (   0.0833333   0.2405626   0.0000000), wk =   0.1666667
        k(   10) = (   0.0833333   0.3367877   0.0000000), wk =   0.1666667
        k(   11) = (   0.0833333   0.4330127   0.0000000), wk =   0.1666667
        k(   12) = (   0.0833333   0.5292377   0.0000000), wk =   0.1666667
        k(   13) = (   0.1666667   0.2886751   0.0000000), wk =   0.0833333
        k(   14) = (   0.1666667   0.3849002   0.0000000), wk =   0.1666667
        k(   15) = (   0.1666667   0.4811252   0.0000000), wk =   0.1666667
        k(   16) = (   0.1666667   0.5773503   0.0000000), wk =   0.0833333
        k(   17) = (   0.2500000   0.4330127   0.0000000), wk =   0.0833333
        k(   18) = (   0.2500000   0.5292377   0.0000000), wk =   0.1666667
        k(   19) = (   0.3333333   0.5773503   0.0000000), wk =   0.0277778

     Dense  grid:    18211 G-vectors     FFT dimensions: (  20,  20, 120)

     Estimated max dynamical RAM per process >      29.77 MB

     Check: negative core charge=   -0.000016

     Initial potential from superposition of free atoms

     starting charge       7.9999, renormalised to       8.0000

     negative rho (up, down):  1.028E-04 0.000E+00
     Starting wfcs are    8 randomized atomic wfcs

     total cpu time spent up to now is        0.7 secs

     Self-consistent Calculation

     iteration #  1     ecut=    40.00 Ry     beta= 0.70
     Davidson diagonalization with overlap
     ethr =  1.00E-02,  avg # of iterations =  7.9

     negative rho (up, down):  1.123E-05 0.000E+00

     total cpu time spent up to now is        1.3 secs

     total energy              =     -23.85722032 Ry
     estimated scf accuracy    <       0.11071056 Ry

     iteration #  2     ecut=    40.00 Ry     beta= 0.70
     Davidson diagonalization with overlap
     ethr =  1.38E-03,  avg # of iterations =  5.5

     negative rho (up, down):  3.688E-04 0.000E+00

     total cpu time spent up to now is        1.9 secs

     total energy              =     -23.89772368 Ry
     estimated scf accuracy    <       0.01504223 Ry

     iteration #  3     ecut=    40.00 Ry     beta= 0.70
     Davidson diagonalization with overlap
     c_bands:  1 eigenvalues not converged
     c_bands:  1 eigenvalues not converged
     c_bands:  1 eigenvalues not converged
     ethr =  1.88E-04,  avg # of iterations = 14.5

     negative rho (up, down):  3.301E-04 0.000E+00

     total cpu time spent up to now is        3.0 secs

     total energy              =     -23.90924528 Ry
     estimated scf accuracy    <       0.00546542 Ry

     iteration #  4     ecut=    40.00 Ry     beta= 0.70
     Davidson diagonalization with overlap
     ethr =  6.83E-05,  avg # of iterations =  4.2

     negative rho (up, down):  5.065E-04 0.000E+00

     total cpu time spent up to now is        3.4 secs

     total energy              =     -23.90819272 Ry
     estimated scf accuracy    <       0.00263241 Ry

     iteration #  5     ecut=    40.00 Ry     beta= 0.70
     Davidson diagonalization with overlap
     c_bands:  1 eigenvalues not converged
     ethr =  3.29E-05,  avg # of iterations =  6.8

     negative rho (up, down):  4.316E-04 0.000E+00

     total cpu time spent up to now is        4.0 secs

     total energy              =     -23.90881472 Ry
     estimated scf accuracy    <       0.00140223 Ry

     iteration #  6     ecut=    40.00 Ry     beta= 0.70
     Davidson diagonalization with overlap
     ethr =  1.75E-05,  avg # of iterations =  3.3

     negative rho (up, down):  4.162E-04 0.000E+00

     total cpu time spent up to now is        4.4 secs

     total energy              =     -23.90888633 Ry
     estimated scf accuracy    <       0.00008755 Ry

     iteration #  7     ecut=    40.00 Ry     beta= 0.70
     Davidson diagonalization with overlap
     c_bands:  1 eigenvalues not converged
     c_bands:  1 eigenvalues not converged
     c_bands:  1 eigenvalues not converged
     ethr =  1.09E-06,  avg # of iterations = 11.9

     negative rho (up, down):  4.216E-04 0.000E+00

     total cpu time spent up to now is        5.3 secs

     total energy              =     -23.90903272 Ry
     estimated scf accuracy    <       0.00001121 Ry

     iteration #  8     ecut=    40.00 Ry     beta= 0.70
     Davidson diagonalization with overlap
     c_bands:  1 eigenvalues not converged
     ethr =  1.40E-07,  avg # of iterations =  5.0

     negative rho (up, down):  4.233E-04 0.000E+00

     total cpu time spent up to now is        5.8 secs

     total energy              =     -23.90903866 Ry
     estimated scf accuracy    <       0.00000277 Ry

     iteration #  9     ecut=    40.00 Ry     beta= 0.70
     Davidson diagonalization with overlap
     ethr =  3.46E-08,  avg # of iterations =  5.1

     negative rho (up, down):  4.224E-04 0.000E+00

     total cpu time spent up to now is        6.3 secs

     total energy              =     -23.90903989 Ry
     estimated scf accuracy    <       0.00000117 Ry

     iteration # 10     ecut=    40.00 Ry     beta= 0.70
     Davidson diagonalization with overlap
     c_bands:  1 eigenvalues not converged
     ethr =  1.47E-08,  avg # of iterations =  3.1

     negative rho (up, down):  4.223E-04 0.000E+00

     total cpu time spent up to now is        6.7 secs

     End of self-consistent calculation

          k = 0.0000 0.0000 0.0000 (  2289 PWs)   bands (ev):

   -21.2500  -9.3519  -4.7903  -4.7903   1.1570   1.8992   2.1253   4.1391

          k = 0.0000 0.0962 0.0000 (  2286 PWs)   bands (ev):

   -21.0860  -9.1557  -5.4393  -5.1288   1.3829   2.1259   2.3511   4.3624

          k = 0.0000 0.1925 0.0000 (  2280 PWs)   bands (ev):

   -20.5960  -8.5721  -7.0738  -5.9214   2.0605   2.8050   3.0283   5.0300

          k = 0.0000 0.2887 0.0000 (  2278 PWs)   bands (ev):

   -19.7856  -9.1695  -7.6206  -6.8015   3.1882   3.9274   4.1563   5.5191

          k = 0.0000 0.3849 0.0000 (  2272 PWs)   bands (ev):

   -18.6668 -11.3712  -7.5352  -6.3512   3.1978   4.7602   5.5360   5.7116

          k = 0.0000 0.4811 0.0000 (  2282 PWs)   bands (ev):

   -17.2707 -13.4709  -8.0083  -4.9273   1.0614   5.7630   6.7906   7.5500

          k = 0.0000-0.5774 0.0000 (  2260 PWs)   bands (ev):

   -16.0040 -14.9800  -8.1707  -4.0818  -0.0376   5.6856   9.1641   9.2708

          k = 0.0833 0.1443 0.0000 (  2291 PWs)   bands (ev):

   -20.7591  -8.7657  -6.4707  -5.8062   1.8348   2.5789   2.8028   4.8086

          k = 0.0833 0.2406 0.0000 (  2281 PWs)   bands (ev):

   -20.1088  -8.1778  -7.9969  -6.8041   2.7380   3.4824   3.7060   5.6899

          k = 0.0833 0.3368 0.0000 (  2266 PWs)   bands (ev):

   -19.1441 -10.2489  -7.6904  -6.8800   4.0894   4.2038   4.8649   5.0589

          k = 0.0833 0.4330 0.0000 (  2279 PWs)   bands (ev):

   -17.8836 -12.3707  -8.3253  -5.4992   2.0096   5.8777   6.5768   6.6422

          k = 0.0833 0.5292 0.0000 (  2273 PWs)   bands (ev):

   -16.4031 -14.3127  -8.6537  -4.1887   0.2392   6.4221   8.1158   9.1108

          k = 0.1667 0.2887 0.0000 (  2273 PWs)   bands (ev):

   -19.3043  -9.5057  -8.1659  -7.0590   3.8653   4.6073   4.6700   4.8351

          k = 0.1667 0.3849 0.0000 (  2279 PWs)   bands (ev):

   -18.1964 -11.2318  -9.2217  -5.8048   2.7200   5.4373   6.1688   6.4121

          k = 0.1667 0.4811 0.0000 (  2273 PWs)   bands (ev):

   -16.8202 -13.1425  -9.7970  -4.3768   0.8057   7.4376   8.1185   8.2930

          k = 0.1667 0.5774 0.0000 (  2254 PWs)   bands (ev):

   -15.5832 -14.5798  -9.9817  -3.4831  -0.2637   8.2270   9.7606   9.7976

          k = 0.2500 0.4330 0.0000 (  2269 PWs)   bands (ev):

   -16.9681 -12.2648 -10.7057  -4.4609   1.1041   7.2185   7.8504   8.2064

          k = 0.2500 0.5292 0.0000 (  2253 PWs)   bands (ev):

   -15.5450 -13.6868 -11.4127  -3.0739  -0.4176   9.0975   9.3789  10.3835

          k = 0.3333 0.5774 0.0000 (  2259 PWs)   bands (ev):

   -14.3269 -14.3269 -12.3117  -1.7167  -1.7167   8.8819  11.1080  11.1085

     the Fermi energy is    -1.7167 ev

!    total energy              =     -23.90904012 Ry
     estimated scf accuracy    <       0.00000001 Ry
     smearing contrib. (-TS)   =      -0.00007836 Ry
     internal energy E=F+TS    =     -23.90896176 Ry

     The total energy is F=E-TS. E is the sum of the following terms:
     one-electron contribution =    -157.39343568 Ry
     hartree contribution      =      80.15827069 Ry
     xc contribution           =      -8.30344385 Ry
     ewald contribution        =      61.62964709 Ry

     convergence has been achieved in  10 iterations

     Writing all to output data dir ../tmp/gr.save/

     init_run     :      0.47s CPU      0.48s WALL (       1 calls)
     electrons    :      5.27s CPU      6.02s WALL (       1 calls)

     Called by init_run:
     wfcinit      :      0.21s CPU      0.21s WALL (       1 calls)
     potinit      :      0.02s CPU      0.03s WALL (       1 calls)
     hinit0       :      0.23s CPU      0.23s WALL (       1 calls)

     Called by electrons:
     c_bands      :      4.55s CPU      5.22s WALL (      10 calls)
     sum_band     :      0.51s CPU      0.51s WALL (      10 calls)
     v_of_rho     :      0.13s CPU      0.13s WALL (      11 calls)
     newd         :      0.07s CPU      0.07s WALL (      11 calls)
     mix_rho      :      0.02s CPU      0.02s WALL (      10 calls)

     Called by c_bands:
     init_us_2    :      0.09s CPU      0.09s WALL (     399 calls)
     init_us_2:cp :      0.09s CPU      0.09s WALL (     399 calls)
     cegterg      :      4.31s CPU      4.40s WALL (     190 calls)

     Called by *egterg:
     cdiaghg      :      0.07s CPU      0.07s WALL (    1470 calls)
     h_psi        :      3.31s CPU      3.38s WALL (    1489 calls)
     s_psi        :      0.18s CPU      0.18s WALL (    1489 calls)
     g_psi        :      0.03s CPU      0.03s WALL (    1280 calls)

     Called by h_psi:
     h_psi:calbec :      0.19s CPU      0.19s WALL (    1489 calls)
     vloc_psi     :      2.92s CPU      2.98s WALL (    1489 calls)
     add_vuspsi   :      0.18s CPU      0.18s WALL (    1489 calls)

     General routines
     calbec       :      0.23s CPU      0.24s WALL (    1679 calls)
     fft          :      0.19s CPU      0.19s WALL (     121 calls)
     ffts         :      0.00s CPU      0.00s WALL (      10 calls)
     fftw         :      2.91s CPU      2.97s WALL (   13552 calls)


     PWSCF        :      5.77s CPU      7.09s WALL


   This run was terminated on:   0:30: 3  25Aug2023            

=------------------------------------------------------------------------------=
   JOB DONE.
=------------------------------------------------------------------------------=
