
     Program PWSCF v.7.0 starts on 25Aug2023 at  0:30:17 

     This program is part of the open-source Quantum ESPRESSO suite
     for quantum simulation of materials; please cite
         "P. Giannozzi et al., J. Phys.:Condens. Matter 21 395502 (2009);
         "P. Giannozzi et al., J. Phys.:Condens. Matter 29 465901 (2017);
         "P. Giannozzi et al., J. Chem. Phys. 152 154105 (2020);
          URL http://www.quantum-espresso.org", 
     in publications or presentations arising from this work. More details at
     http://www.quantum-espresso.org/quote

     Serial version
     6261 MiB available memory on the printing compute node when the environment starts

     Waiting for input...
     Reading input from standard input

     Current dimensions of program PWSCF are:
     Max number of different atomic species (ntypx) = 10
     Max number of k-points (npk) =  40000
     Max angular momentum in pseudopotentials (lmaxx) =  4

     G-vector sticks info
     --------------------
     sticks:   dense  smooth     PW     G-vecs:    dense   smooth      PW
     Sum         241     241     85                18211    18211    3425

     Using Slab Decomposition



     bravais-lattice index     =            4
     lattice parameter (alat)  =       4.6561  a.u.
     unit-cell volume          =     532.1899 (a.u.)^3
     number of atoms/cell      =            2
     number of atomic types    =            1
     number of electrons       =         8.00
     number of Kohn-Sham states=            8
     kinetic-energy cutoff     =      40.0000  Ry
     charge density cutoff     =     160.0000  Ry
     scf convergence threshold =      1.0E-06
     mixing beta               =       0.7000
     number of iterations used =            8  plain     mixing
     Exchange-correlation= PBE
                           (   1   4   3   4   0   0   0)

     celldm(1)=   4.656107  celldm(2)=   0.000000  celldm(3)=   6.087896
     celldm(4)=   0.000000  celldm(5)=   0.000000  celldm(6)=   0.000000

     crystal axes: (cart. coord. in units of alat)
               a(1) = (   1.000000   0.000000   0.000000 )  
               a(2) = (  -0.500000   0.866025   0.000000 )  
               a(3) = (   0.000000   0.000000   6.087896 )  

     reciprocal axes: (cart. coord. in units 2 pi/alat)
               b(1) = (  1.000000  0.577350 -0.000000 )  
               b(2) = (  0.000000  1.154701  0.000000 )  
               b(3) = (  0.000000 -0.000000  0.164260 )  


     PseudoPot. # 1 for C  read from file:
     ../pseudo/C.pbe-n-rrkjus_psl.0.1.UPF
     MD5 check sum: 96a6a315177d77e6c95bf6fd3870f9e3
     Pseudo is Ultrasoft + core correction, Zval =  4.0
     Generated using &quot;atomic&quot; code by A. Dal Corso  v.6.3MaX
     Using radial grid of 1073 points,  4 beta functions with: 
                l(1) =   0
                l(2) =   0
                l(3) =   1
                l(4) =   1
     Q(r) pseudized with 0 coefficients 


     atomic species   valence    mass     pseudopotential
        C              4.00    12.01070     C ( 1.00)

     24 Sym. Ops., with inversion, found



   Cartesian axes

     site n.     atom                  positions (alat units)
         1           C   tau(   1) = (   0.0000000   0.5773503   3.0439478  )
         2           C   tau(   2) = (   0.5000000   0.2886751   3.0439478  )

     number of k points=    19  Methfessel-Paxton smearing, width (Ry)=  0.0250
                       cart. coord. in units 2pi/alat
        k(    1) = (   0.0000000   0.0000000   0.0000000), wk =   0.0138889
        k(    2) = (   0.0000000   0.0962250   0.0000000), wk =   0.0833333
        k(    3) = (   0.0000000   0.1924501   0.0000000), wk =   0.0833333
        k(    4) = (   0.0000000   0.2886751   0.0000000), wk =   0.0833333
        k(    5) = (   0.0000000   0.3849002   0.0000000), wk =   0.0833333
        k(    6) = (   0.0000000   0.4811252   0.0000000), wk =   0.0833333
        k(    7) = (   0.0000000  -0.5773503   0.0000000), wk =   0.0416667
        k(    8) = (   0.0833333   0.1443376   0.0000000), wk =   0.0833333
        k(    9) = (   0.0833333   0.2405626   0.0000000), wk =   0.1666667
        k(   10) = (   0.0833333   0.3367877   0.0000000), wk =   0.1666667
        k(   11) = (   0.0833333   0.4330127   0.0000000), wk =   0.1666667
        k(   12) = (   0.0833333   0.5292377   0.0000000), wk =   0.1666667
        k(   13) = (   0.1666667   0.2886751   0.0000000), wk =   0.0833333
        k(   14) = (   0.1666667   0.3849002   0.0000000), wk =   0.1666667
        k(   15) = (   0.1666667   0.4811252   0.0000000), wk =   0.1666667
        k(   16) = (   0.1666667   0.5773503   0.0000000), wk =   0.0833333
        k(   17) = (   0.2500000   0.4330127   0.0000000), wk =   0.0833333
        k(   18) = (   0.2500000   0.5292377   0.0000000), wk =   0.1666667
        k(   19) = (   0.3333333   0.5773503   0.0000000), wk =   0.0277778

     Dense  grid:    18211 G-vectors     FFT dimensions: (  20,  20, 120)

     Estimated max dynamical RAM per process >      29.77 MB

     Check: negative core charge=   -0.000016

     Initial potential from superposition of free atoms

     starting charge       7.9999, renormalised to       8.0000

     negative rho (up, down):  1.028E-04 0.000E+00
     Starting wfcs are    8 randomized atomic wfcs

     total cpu time spent up to now is        0.6 secs

     Self-consistent Calculation

     iteration #  1     ecut=    40.00 Ry     beta= 0.70
     Davidson diagonalization with overlap
     ethr =  1.00E-02,  avg # of iterations =  7.9

     negative rho (up, down):  1.123E-05 0.000E+00

     total cpu time spent up to now is        1.3 secs

     total energy              =     -23.85733809 Ry
     estimated scf accuracy    <       0.11070953 Ry

     iteration #  2     ecut=    40.00 Ry     beta= 0.70
     Davidson diagonalization with overlap
     ethr =  1.38E-03,  avg # of iterations =  5.5

     negative rho (up, down):  3.689E-04 0.000E+00

     total cpu time spent up to now is        1.8 secs

     total energy              =     -23.89783814 Ry
     estimated scf accuracy    <       0.01504373 Ry

     iteration #  3     ecut=    40.00 Ry     beta= 0.70
     Davidson diagonalization with overlap
     c_bands:  1 eigenvalues not converged
     c_bands:  1 eigenvalues not converged
     ethr =  1.88E-04,  avg # of iterations = 14.5

     negative rho (up, down):  3.301E-04 0.000E+00

     total cpu time spent up to now is        2.8 secs

     total energy              =     -23.90936288 Ry
     estimated scf accuracy    <       0.00546661 Ry

     iteration #  4     ecut=    40.00 Ry     beta= 0.70
     Davidson diagonalization with overlap
     ethr =  6.83E-05,  avg # of iterations =  4.3

     negative rho (up, down):  5.079E-04 0.000E+00

     total cpu time spent up to now is        3.2 secs

     total energy              =     -23.90831020 Ry
     estimated scf accuracy    <       0.00263123 Ry

     iteration #  5     ecut=    40.00 Ry     beta= 0.70
     Davidson diagonalization with overlap
     c_bands:  1 eigenvalues not converged
     ethr =  3.29E-05,  avg # of iterations =  6.6

     negative rho (up, down):  4.314E-04 0.000E+00

     total cpu time spent up to now is        3.8 secs

     total energy              =     -23.90893640 Ry
     estimated scf accuracy    <       0.00132719 Ry

     iteration #  6     ecut=    40.00 Ry     beta= 0.70
     Davidson diagonalization with overlap
     ethr =  1.66E-05,  avg # of iterations =  3.4

     negative rho (up, down):  4.158E-04 0.000E+00

     total cpu time spent up to now is        4.2 secs

     total energy              =     -23.90900975 Ry
     estimated scf accuracy    <       0.00008272 Ry

     iteration #  7     ecut=    40.00 Ry     beta= 0.70
     Davidson diagonalization with overlap
     c_bands:  1 eigenvalues not converged
     c_bands:  1 eigenvalues not converged
     c_bands:  1 eigenvalues not converged
     ethr =  1.03E-06,  avg # of iterations = 11.9

     negative rho (up, down):  4.217E-04 0.000E+00

     total cpu time spent up to now is        5.1 secs

     total energy              =     -23.90914973 Ry
     estimated scf accuracy    <       0.00001135 Ry

     iteration #  8     ecut=    40.00 Ry     beta= 0.70
     Davidson diagonalization with overlap
     c_bands:  1 eigenvalues not converged
     ethr =  1.42E-07,  avg # of iterations =  5.1

     negative rho (up, down):  4.250E-04 0.000E+00

     total cpu time spent up to now is        5.6 secs

     total energy              =     -23.90915678 Ry
     estimated scf accuracy    <       0.00000210 Ry

     iteration #  9     ecut=    40.00 Ry     beta= 0.70
     Davidson diagonalization with overlap
     ethr =  2.62E-08,  avg # of iterations =  4.3

     negative rho (up, down):  4.237E-04 0.000E+00

     total cpu time spent up to now is        6.1 secs

     total energy              =     -23.90915720 Ry
     estimated scf accuracy    <       0.00000406 Ry

     iteration # 10     ecut=    40.00 Ry     beta= 0.70
     Davidson diagonalization with overlap
     ethr =  2.62E-08,  avg # of iterations =  1.9

     negative rho (up, down):  4.224E-04 0.000E+00

     total cpu time spent up to now is        6.5 secs

     End of self-consistent calculation

          k = 0.0000 0.0000 0.0000 (  2289 PWs)   bands (ev):

   -21.2552  -9.3561  -4.7961  -4.7961   1.1573   1.8998   2.1257   4.1394

          k = 0.0000 0.0962 0.0000 (  2286 PWs)   bands (ev):

   -21.0913  -9.1598  -5.4450  -5.1346   1.3832   2.1265   2.3515   4.3628

          k = 0.0000 0.1925 0.0000 (  2280 PWs)   bands (ev):

   -20.6012  -8.5763  -7.0794  -5.9271   2.0608   2.8057   3.0287   5.0303

          k = 0.0000 0.2887 0.0000 (  2278 PWs)   bands (ev):

   -19.7908  -9.1751  -7.6248  -6.8072   3.1885   3.9279   4.1566   5.5147

          k = 0.0000 0.3849 0.0000 (  2272 PWs)   bands (ev):

   -18.6721 -11.3768  -7.5409  -6.3555   3.1933   4.7603   5.5364   5.7115

          k = 0.0000 0.4811 0.0000 (  2282 PWs)   bands (ev):

   -17.2760 -13.4764  -8.0140  -4.9316   1.0571   5.7579   6.7907   7.5528

          k = 0.0000-0.5774 0.0000 (  2260 PWs)   bands (ev):

   -16.0094 -14.9854  -8.1764  -4.0862  -0.0418   5.6805   9.1638   9.2701

          k = 0.0833 0.1443 0.0000 (  2291 PWs)   bands (ev):

   -20.7643  -8.7698  -6.4764  -5.8119   1.8351   2.5796   2.8032   4.8091

          k = 0.0833 0.2406 0.0000 (  2281 PWs)   bands (ev):

   -20.1141  -8.1834  -8.0011  -6.8098   2.7382   3.4830   3.7064   5.6901

          k = 0.0833 0.3368 0.0000 (  2266 PWs)   bands (ev):

   -19.1494 -10.2544  -7.6961  -6.8843   4.0896   4.1994   4.8653   5.0592

          k = 0.0833 0.4330 0.0000 (  2279 PWs)   bands (ev):

   -17.8889 -12.3762  -8.3309  -5.5035   2.0052   5.8778   6.5721   6.6440

          k = 0.0833 0.5292 0.0000 (  2273 PWs)   bands (ev):

   -16.4084 -14.3182  -8.6594  -4.1931   0.2348   6.4170   8.1158   9.1112

          k = 0.1667 0.2887 0.0000 (  2273 PWs)   bands (ev):

   -19.3095  -9.5113  -8.1715  -7.0632   3.8655   4.6079   4.6654   4.8355

          k = 0.1667 0.3849 0.0000 (  2279 PWs)   bands (ev):

   -18.2017 -11.2373  -9.2273  -5.8091   2.7155   5.4374   6.1693   6.4125

          k = 0.1667 0.4811 0.0000 (  2273 PWs)   bands (ev):

   -16.8256 -13.1479  -9.8026  -4.3811   0.8013   7.4375   8.1188   8.2885

          k = 0.1667 0.5774 0.0000 (  2254 PWs)   bands (ev):

   -15.5886 -14.5853  -9.9873  -3.4875  -0.2680   8.2219   9.7602   9.8895

          k = 0.2500 0.4330 0.0000 (  2269 PWs)   bands (ev):

   -16.9734 -12.2703 -10.7113  -4.4653   1.0996   7.2185   7.8506   8.2068

          k = 0.2500 0.5292 0.0000 (  2253 PWs)   bands (ev):

   -15.5504 -13.6922 -11.4183  -3.0783  -0.4221   9.0955   9.3788  10.3875

          k = 0.3333 0.5774 0.0000 (  2259 PWs)   bands (ev):

   -14.3324 -14.3324 -12.3172  -1.7211  -1.7211   8.8794  11.1055  11.1061

     the Fermi energy is    -1.7211 ev

!    total energy              =     -23.90915734 Ry
     estimated scf accuracy    <       0.00000031 Ry
     smearing contrib. (-TS)   =      -0.00019589 Ry
     internal energy E=F+TS    =     -23.90896146 Ry

     The total energy is F=E-TS. E is the sum of the following terms:
     one-electron contribution =    -157.39589590 Ry
     hartree contribution      =      80.16109692 Ry
     xc contribution           =      -8.30380956 Ry
     ewald contribution        =      61.62964709 Ry

     convergence has been achieved in  10 iterations

     Writing all to output data dir ../tmp/gr.save/

     init_run     :      0.48s CPU      0.49s WALL (       1 calls)
     electrons    :      5.11s CPU      6.00s WALL (       1 calls)

     Called by init_run:
     wfcinit      :      0.21s CPU      0.21s WALL (       1 calls)
     potinit      :      0.02s CPU      0.03s WALL (       1 calls)
     hinit0       :      0.23s CPU      0.23s WALL (       1 calls)

     Called by electrons:
     c_bands      :      4.41s CPU      5.12s WALL (      10 calls)
     sum_band     :      0.49s CPU      0.52s WALL (      10 calls)
     v_of_rho     :      0.13s CPU      0.13s WALL (      11 calls)
     newd         :      0.07s CPU      0.07s WALL (      11 calls)
     mix_rho      :      0.02s CPU      0.02s WALL (      10 calls)

     Called by c_bands:
     init_us_2    :      0.08s CPU      0.09s WALL (     399 calls)
     init_us_2:cp :      0.08s CPU      0.09s WALL (     399 calls)
     cegterg      :      4.20s CPU      4.28s WALL (     190 calls)

     Called by *egterg:
     cdiaghg      :      0.07s CPU      0.07s WALL (    1433 calls)
     h_psi        :      3.23s CPU      3.30s WALL (    1452 calls)
     s_psi        :      0.17s CPU      0.18s WALL (    1452 calls)
     g_psi        :      0.03s CPU      0.03s WALL (    1243 calls)

     Called by h_psi:
     h_psi:calbec :      0.18s CPU      0.18s WALL (    1452 calls)
     vloc_psi     :      2.86s CPU      2.92s WALL (    1452 calls)
     add_vuspsi   :      0.17s CPU      0.18s WALL (    1452 calls)

     General routines
     calbec       :      0.22s CPU      0.23s WALL (    1642 calls)
     fft          :      0.20s CPU      0.20s WALL (     121 calls)
     ffts         :      0.00s CPU      0.00s WALL (      10 calls)
     fftw         :      2.85s CPU      2.92s WALL (   13558 calls)


     PWSCF        :      5.63s CPU      7.16s WALL


   This run was terminated on:   0:30:24  25Aug2023            

=------------------------------------------------------------------------------=
   JOB DONE.
=------------------------------------------------------------------------------=
