
     Program PWSCF v.7.0 starts on 25Aug2023 at  0:29:49 

     This program is part of the open-source Quantum ESPRESSO suite
     for quantum simulation of materials; please cite
         "P. Giannozzi et al., J. Phys.:Condens. Matter 21 395502 (2009);
         "P. Giannozzi et al., J. Phys.:Condens. Matter 29 465901 (2017);
         "P. Giannozzi et al., J. Chem. Phys. 152 154105 (2020);
          URL http://www.quantum-espresso.org", 
     in publications or presentations arising from this work. More details at
     http://www.quantum-espresso.org/quote

     Serial version
     6260 MiB available memory on the printing compute node when the environment starts

     Waiting for input...
     Reading input from standard input

     Current dimensions of program PWSCF are:
     Max number of different atomic species (ntypx) = 10
     Max number of k-points (npk) =  40000
     Max angular momentum in pseudopotentials (lmaxx) =  4

     G-vector sticks info
     --------------------
     sticks:   dense  smooth     PW     G-vecs:    dense   smooth      PW
     Sum         241     241     85                18211    18211    3425

     Using Slab Decomposition



     bravais-lattice index     =            4
     lattice parameter (alat)  =       4.6561  a.u.
     unit-cell volume          =     532.1899 (a.u.)^3
     number of atoms/cell      =            2
     number of atomic types    =            1
     number of electrons       =         8.00
     number of Kohn-Sham states=            8
     kinetic-energy cutoff     =      40.0000  Ry
     charge density cutoff     =     160.0000  Ry
     scf convergence threshold =      1.0E-06
     mixing beta               =       0.7000
     number of iterations used =            8  plain     mixing
     Exchange-correlation= PBE
                           (   1   4   3   4   0   0   0)

     celldm(1)=   4.656107  celldm(2)=   0.000000  celldm(3)=   6.087896
     celldm(4)=   0.000000  celldm(5)=   0.000000  celldm(6)=   0.000000

     crystal axes: (cart. coord. in units of alat)
               a(1) = (   1.000000   0.000000   0.000000 )  
               a(2) = (  -0.500000   0.866025   0.000000 )  
               a(3) = (   0.000000   0.000000   6.087896 )  

     reciprocal axes: (cart. coord. in units 2 pi/alat)
               b(1) = (  1.000000  0.577350 -0.000000 )  
               b(2) = (  0.000000  1.154701  0.000000 )  
               b(3) = (  0.000000 -0.000000  0.164260 )  


     PseudoPot. # 1 for C  read from file:
     ../pseudo/C.pbe-n-rrkjus_psl.0.1.UPF
     MD5 check sum: 96a6a315177d77e6c95bf6fd3870f9e3
     Pseudo is Ultrasoft + core correction, Zval =  4.0
     Generated using &quot;atomic&quot; code by A. Dal Corso  v.6.3MaX
     Using radial grid of 1073 points,  4 beta functions with: 
                l(1) =   0
                l(2) =   0
                l(3) =   1
                l(4) =   1
     Q(r) pseudized with 0 coefficients 


     atomic species   valence    mass     pseudopotential
        C              4.00    12.01070     C ( 1.00)

     24 Sym. Ops., with inversion, found



   Cartesian axes

     site n.     atom                  positions (alat units)
         1           C   tau(   1) = (   0.0000000   0.5773503   3.0439478  )
         2           C   tau(   2) = (   0.5000000   0.2886751   3.0439478  )

     number of k points=    19  Methfessel-Paxton smearing, width (Ry)=  0.0050
                       cart. coord. in units 2pi/alat
        k(    1) = (   0.0000000   0.0000000   0.0000000), wk =   0.0138889
        k(    2) = (   0.0000000   0.0962250   0.0000000), wk =   0.0833333
        k(    3) = (   0.0000000   0.1924501   0.0000000), wk =   0.0833333
        k(    4) = (   0.0000000   0.2886751   0.0000000), wk =   0.0833333
        k(    5) = (   0.0000000   0.3849002   0.0000000), wk =   0.0833333
        k(    6) = (   0.0000000   0.4811252   0.0000000), wk =   0.0833333
        k(    7) = (   0.0000000  -0.5773503   0.0000000), wk =   0.0416667
        k(    8) = (   0.0833333   0.1443376   0.0000000), wk =   0.0833333
        k(    9) = (   0.0833333   0.2405626   0.0000000), wk =   0.1666667
        k(   10) = (   0.0833333   0.3367877   0.0000000), wk =   0.1666667
        k(   11) = (   0.0833333   0.4330127   0.0000000), wk =   0.1666667
        k(   12) = (   0.0833333   0.5292377   0.0000000), wk =   0.1666667
        k(   13) = (   0.1666667   0.2886751   0.0000000), wk =   0.0833333
        k(   14) = (   0.1666667   0.3849002   0.0000000), wk =   0.1666667
        k(   15) = (   0.1666667   0.4811252   0.0000000), wk =   0.1666667
        k(   16) = (   0.1666667   0.5773503   0.0000000), wk =   0.0833333
        k(   17) = (   0.2500000   0.4330127   0.0000000), wk =   0.0833333
        k(   18) = (   0.2500000   0.5292377   0.0000000), wk =   0.1666667
        k(   19) = (   0.3333333   0.5773503   0.0000000), wk =   0.0277778

     Dense  grid:    18211 G-vectors     FFT dimensions: (  20,  20, 120)

     Estimated max dynamical RAM per process >      29.77 MB

     Check: negative core charge=   -0.000016

     Initial potential from superposition of free atoms

     starting charge       7.9999, renormalised to       8.0000

     negative rho (up, down):  1.028E-04 0.000E+00
     Starting wfcs are    8 randomized atomic wfcs

     total cpu time spent up to now is        0.6 secs

     Self-consistent Calculation

     iteration #  1     ecut=    40.00 Ry     beta= 0.70
     Davidson diagonalization with overlap
     ethr =  1.00E-02,  avg # of iterations =  7.9

     negative rho (up, down):  1.123E-05 0.000E+00

     total cpu time spent up to now is        1.3 secs

     total energy              =     -23.85718075 Ry
     estimated scf accuracy    <       0.11071225 Ry

     iteration #  2     ecut=    40.00 Ry     beta= 0.70
     Davidson diagonalization with overlap
     ethr =  1.38E-03,  avg # of iterations =  5.5

     negative rho (up, down):  3.688E-04 0.000E+00

     total cpu time spent up to now is        1.8 secs

     total energy              =     -23.89768948 Ry
     estimated scf accuracy    <       0.01503982 Ry

     iteration #  3     ecut=    40.00 Ry     beta= 0.70
     Davidson diagonalization with overlap
     c_bands:  1 eigenvalues not converged
     c_bands:  1 eigenvalues not converged
     c_bands:  1 eigenvalues not converged
     ethr =  1.88E-04,  avg # of iterations = 14.5

     negative rho (up, down):  3.300E-04 0.000E+00

     total cpu time spent up to now is        2.8 secs

     total energy              =     -23.90920489 Ry
     estimated scf accuracy    <       0.00546118 Ry

     iteration #  4     ecut=    40.00 Ry     beta= 0.70
     Davidson diagonalization with overlap
     ethr =  6.83E-05,  avg # of iterations =  4.2

     negative rho (up, down):  5.064E-04 0.000E+00

     total cpu time spent up to now is        3.3 secs

     total energy              =     -23.90815448 Ry
     estimated scf accuracy    <       0.00262937 Ry

     iteration #  5     ecut=    40.00 Ry     beta= 0.70
     Davidson diagonalization with overlap
     c_bands:  1 eigenvalues not converged
     ethr =  3.29E-05,  avg # of iterations =  6.8

     negative rho (up, down):  4.316E-04 0.000E+00

     total cpu time spent up to now is        3.9 secs

     total energy              =     -23.90877555 Ry
     estimated scf accuracy    <       0.00140234 Ry

     iteration #  6     ecut=    40.00 Ry     beta= 0.70
     Davidson diagonalization with overlap
     ethr =  1.75E-05,  avg # of iterations =  3.3

     negative rho (up, down):  4.162E-04 0.000E+00

     total cpu time spent up to now is        4.3 secs

     total energy              =     -23.90884732 Ry
     estimated scf accuracy    <       0.00008754 Ry

     iteration #  7     ecut=    40.00 Ry     beta= 0.70
     Davidson diagonalization with overlap
     c_bands:  1 eigenvalues not converged
     c_bands:  1 eigenvalues not converged
     c_bands:  1 eigenvalues not converged
     ethr =  1.09E-06,  avg # of iterations = 11.8

     negative rho (up, down):  4.216E-04 0.000E+00

     total cpu time spent up to now is        5.2 secs

     total energy              =     -23.90899354 Ry
     estimated scf accuracy    <       0.00001068 Ry

     iteration #  8     ecut=    40.00 Ry     beta= 0.70
     Davidson diagonalization with overlap
     ethr =  1.34E-07,  avg # of iterations =  5.2

     negative rho (up, down):  4.230E-04 0.000E+00

     total cpu time spent up to now is        5.8 secs

     total energy              =     -23.90899961 Ry
     estimated scf accuracy    <       0.00000273 Ry

     iteration #  9     ecut=    40.00 Ry     beta= 0.70
     Davidson diagonalization with overlap
     ethr =  3.42E-08,  avg # of iterations =  4.1

     negative rho (up, down):  4.227E-04 0.000E+00

     total cpu time spent up to now is        6.3 secs

     End of self-consistent calculation

          k = 0.0000 0.0000 0.0000 (  2289 PWs)   bands (ev):

   -21.2591  -9.3581  -4.8019  -4.8019   1.1578   1.9001   2.1261   4.1397

          k = 0.0000 0.0962 0.0000 (  2286 PWs)   bands (ev):

   -21.0952  -9.1619  -5.4506  -5.1403   1.3837   2.1267   2.3518   4.3630

          k = 0.0000 0.1925 0.0000 (  2280 PWs)   bands (ev):

   -20.6052  -8.5784  -7.0847  -5.9327   2.0612   2.8059   3.0290   5.0306

          k = 0.0000 0.2887 0.0000 (  2278 PWs)   bands (ev):

   -19.7949  -9.1801  -7.6269  -6.8126   3.1889   3.9282   4.1569   5.5118

          k = 0.0000 0.3849 0.0000 (  2272 PWs)   bands (ev):

   -18.6762 -11.3815  -7.5462  -6.3578   3.1905   4.7608   5.5369   5.7116

          k = 0.0000 0.4811 0.0000 (  2282 PWs)   bands (ev):

   -17.2803 -13.4809  -8.0193  -4.9340   1.0545   5.7544   6.7912   7.5550

          k = 0.0000-0.5774 0.0000 (  2260 PWs)   bands (ev):

   -16.0138 -14.9897  -8.1817  -4.0888  -0.0442   5.6771   9.1644   9.2714

          k = 0.0833 0.1443 0.0000 (  2291 PWs)   bands (ev):

   -20.7683  -8.7719  -6.4819  -5.8174   1.8355   2.5797   2.8036   4.8092

          k = 0.0833 0.2406 0.0000 (  2281 PWs)   bands (ev):

   -20.1181  -8.1886  -8.0033  -6.8152   2.7387   3.4832   3.7067   5.6905

          k = 0.0833 0.3368 0.0000 (  2266 PWs)   bands (ev):

   -19.1535 -10.2593  -7.7013  -6.8865   4.0900   4.1965   4.8655   5.0596

          k = 0.0833 0.4330 0.0000 (  2279 PWs)   bands (ev):

   -17.8931 -12.3808  -8.3361  -5.5059   2.0024   5.8782   6.5689   6.6451

          k = 0.0833 0.5292 0.0000 (  2273 PWs)   bands (ev):

   -16.4127 -14.3226  -8.6646  -4.1956   0.2324   6.4134   8.1163   9.1115

          k = 0.1667 0.2887 0.0000 (  2273 PWs)   bands (ev):

   -19.3136  -9.5164  -8.1766  -7.0654   3.8659   4.6081   4.6621   4.8358

          k = 0.1667 0.3849 0.0000 (  2279 PWs)   bands (ev):

   -18.2059 -11.2422  -9.2323  -5.8114   2.7125   5.4379   6.1696   6.4128

          k = 0.1667 0.4811 0.0000 (  2273 PWs)   bands (ev):

   -16.8299 -13.1525  -9.8075  -4.3836   0.7985   7.4379   8.1190   8.2851

          k = 0.1667 0.5774 0.0000 (  2254 PWs)   bands (ev):

   -15.5931 -14.5896  -9.9922  -3.4901  -0.2706   8.2181   9.7608   9.8904

          k = 0.2500 0.4330 0.0000 (  2269 PWs)   bands (ev):

   -16.9777 -12.2751 -10.7160  -4.4677   1.0967   7.2190   7.8510   8.2071

          k = 0.2500 0.5292 0.0000 (  2253 PWs)   bands (ev):

   -15.5548 -13.6968 -11.4229  -3.0809  -0.4248   9.0957   9.3790  10.3831

          k = 0.3333 0.5774 0.0000 (  2259 PWs)   bands (ev):

   -14.3370 -14.3370 -12.3216  -1.7238  -1.7238   8.8795  11.1044  11.1050

     the Fermi energy is    -1.7238 ev

!    total energy              =     -23.90900077 Ry
     estimated scf accuracy    <       0.00000086 Ry
     smearing contrib. (-TS)   =      -0.00003918 Ry
     internal energy E=F+TS    =     -23.90896159 Ry

     The total energy is F=E-TS. E is the sum of the following terms:
     one-electron contribution =    -157.39469683 Ry
     hartree contribution      =      80.15970619 Ry
     xc contribution           =      -8.30361804 Ry
     ewald contribution        =      61.62964709 Ry

     convergence has been achieved in   9 iterations

     Writing all to output data dir ../tmp/gr.save/

     init_run     :      0.47s CPU      0.48s WALL (       1 calls)
     electrons    :      4.98s CPU      5.72s WALL (       1 calls)

     Called by init_run:
     wfcinit      :      0.20s CPU      0.20s WALL (       1 calls)
     potinit      :      0.02s CPU      0.03s WALL (       1 calls)
     hinit0       :      0.23s CPU      0.23s WALL (       1 calls)

     Called by electrons:
     c_bands      :      4.30s CPU      4.95s WALL (       9 calls)
     sum_band     :      0.48s CPU      0.48s WALL (       9 calls)
     v_of_rho     :      0.13s CPU      0.13s WALL (      10 calls)
     newd         :      0.06s CPU      0.07s WALL (      10 calls)
     mix_rho      :      0.02s CPU      0.02s WALL (       9 calls)

     Called by c_bands:
     init_us_2    :      0.08s CPU      0.08s WALL (     361 calls)
     init_us_2:cp :      0.08s CPU      0.08s WALL (     361 calls)
     cegterg      :      4.08s CPU      4.13s WALL (     171 calls)

     Called by *egterg:
     cdiaghg      :      0.07s CPU      0.07s WALL (    1376 calls)
     h_psi        :      3.13s CPU      3.17s WALL (    1395 calls)
     s_psi        :      0.17s CPU      0.17s WALL (    1395 calls)
     g_psi        :      0.03s CPU      0.03s WALL (    1205 calls)

     Called by h_psi:
     h_psi:calbec :      0.18s CPU      0.18s WALL (    1395 calls)
     vloc_psi     :      2.76s CPU      2.79s WALL (    1395 calls)
     add_vuspsi   :      0.17s CPU      0.17s WALL (    1395 calls)

     General routines
     calbec       :      0.22s CPU      0.23s WALL (    1566 calls)
     fft          :      0.19s CPU      0.19s WALL (     110 calls)
     ffts         :      0.00s CPU      0.00s WALL (       9 calls)
     fftw         :      2.72s CPU      2.75s WALL (   12598 calls)


     PWSCF        :      5.49s CPU      6.86s WALL


   This run was terminated on:   0:29:56  25Aug2023            

=------------------------------------------------------------------------------=
   JOB DONE.
=------------------------------------------------------------------------------=
