
     Program PWSCF v.7.0 starts on 25Aug2023 at  0:31:36 

     This program is part of the open-source Quantum ESPRESSO suite
     for quantum simulation of materials; please cite
         "P. Giannozzi et al., J. Phys.:Condens. Matter 21 395502 (2009);
         "P. Giannozzi et al., J. Phys.:Condens. Matter 29 465901 (2017);
         "P. Giannozzi et al., J. Chem. Phys. 152 154105 (2020);
          URL http://www.quantum-espresso.org", 
     in publications or presentations arising from this work. More details at
     http://www.quantum-espresso.org/quote

     Serial version
     6165 MiB available memory on the printing compute node when the environment starts

     Waiting for input...
     Reading input from standard input

     Current dimensions of program PWSCF are:
     Max number of different atomic species (ntypx) = 10
     Max number of k-points (npk) =  40000
     Max angular momentum in pseudopotentials (lmaxx) =  4

     G-vector sticks info
     --------------------
     sticks:   dense  smooth     PW     G-vecs:    dense   smooth      PW
     Sum         241     241     85                18211    18211    3425

     Using Slab Decomposition



     bravais-lattice index     =            4
     lattice parameter (alat)  =       4.6561  a.u.
     unit-cell volume          =     532.1899 (a.u.)^3
     number of atoms/cell      =            2
     number of atomic types    =            1
     number of electrons       =         8.00
     number of Kohn-Sham states=            8
     kinetic-energy cutoff     =      40.0000  Ry
     charge density cutoff     =     160.0000  Ry
     scf convergence threshold =      1.0E-06
     mixing beta               =       0.7000
     number of iterations used =            8  plain     mixing
     Exchange-correlation= PBE
                           (   1   4   3   4   0   0   0)

     celldm(1)=   4.656107  celldm(2)=   0.000000  celldm(3)=   6.087896
     celldm(4)=   0.000000  celldm(5)=   0.000000  celldm(6)=   0.000000

     crystal axes: (cart. coord. in units of alat)
               a(1) = (   1.000000   0.000000   0.000000 )  
               a(2) = (  -0.500000   0.866025   0.000000 )  
               a(3) = (   0.000000   0.000000   6.087896 )  

     reciprocal axes: (cart. coord. in units 2 pi/alat)
               b(1) = (  1.000000  0.577350 -0.000000 )  
               b(2) = (  0.000000  1.154701  0.000000 )  
               b(3) = (  0.000000 -0.000000  0.164260 )  


     PseudoPot. # 1 for C  read from file:
     ../pseudo/C.pbe-n-rrkjus_psl.0.1.UPF
     MD5 check sum: 96a6a315177d77e6c95bf6fd3870f9e3
     Pseudo is Ultrasoft + core correction, Zval =  4.0
     Generated using &quot;atomic&quot; code by A. Dal Corso  v.6.3MaX
     Using radial grid of 1073 points,  4 beta functions with: 
                l(1) =   0
                l(2) =   0
                l(3) =   1
                l(4) =   1
     Q(r) pseudized with 0 coefficients 


     atomic species   valence    mass     pseudopotential
        C              4.00    12.01070     C ( 1.00)

     24 Sym. Ops., with inversion, found



   Cartesian axes

     site n.     atom                  positions (alat units)
         1           C   tau(   1) = (   0.0000000   0.5773503   3.0439478  )
         2           C   tau(   2) = (   0.5000000   0.2886751   3.0439478  )

     number of k points=    19  Marzari-Vanderbilt smearing, width (Ry)=  0.0400
                       cart. coord. in units 2pi/alat
        k(    1) = (   0.0000000   0.0000000   0.0000000), wk =   0.0138889
        k(    2) = (   0.0000000   0.0962250   0.0000000), wk =   0.0833333
        k(    3) = (   0.0000000   0.1924501   0.0000000), wk =   0.0833333
        k(    4) = (   0.0000000   0.2886751   0.0000000), wk =   0.0833333
        k(    5) = (   0.0000000   0.3849002   0.0000000), wk =   0.0833333
        k(    6) = (   0.0000000   0.4811252   0.0000000), wk =   0.0833333
        k(    7) = (   0.0000000  -0.5773503   0.0000000), wk =   0.0416667
        k(    8) = (   0.0833333   0.1443376   0.0000000), wk =   0.0833333
        k(    9) = (   0.0833333   0.2405626   0.0000000), wk =   0.1666667
        k(   10) = (   0.0833333   0.3367877   0.0000000), wk =   0.1666667
        k(   11) = (   0.0833333   0.4330127   0.0000000), wk =   0.1666667
        k(   12) = (   0.0833333   0.5292377   0.0000000), wk =   0.1666667
        k(   13) = (   0.1666667   0.2886751   0.0000000), wk =   0.0833333
        k(   14) = (   0.1666667   0.3849002   0.0000000), wk =   0.1666667
        k(   15) = (   0.1666667   0.4811252   0.0000000), wk =   0.1666667
        k(   16) = (   0.1666667   0.5773503   0.0000000), wk =   0.0833333
        k(   17) = (   0.2500000   0.4330127   0.0000000), wk =   0.0833333
        k(   18) = (   0.2500000   0.5292377   0.0000000), wk =   0.1666667
        k(   19) = (   0.3333333   0.5773503   0.0000000), wk =   0.0277778

     Dense  grid:    18211 G-vectors     FFT dimensions: (  20,  20, 120)

     Estimated max dynamical RAM per process >      29.77 MB

     Check: negative core charge=   -0.000016

     Initial potential from superposition of free atoms

     starting charge       7.9999, renormalised to       8.0000

     negative rho (up, down):  1.028E-04 0.000E+00
     Starting wfcs are    8 randomized atomic wfcs

     total cpu time spent up to now is        0.6 secs

     Self-consistent Calculation

     iteration #  1     ecut=    40.00 Ry     beta= 0.70
     Davidson diagonalization with overlap
     ethr =  1.00E-02,  avg # of iterations =  7.9

     negative rho (up, down):  1.123E-05 0.000E+00

     total cpu time spent up to now is        1.3 secs

     total energy              =     -23.85750446 Ry
     estimated scf accuracy    <       0.11069926 Ry

     iteration #  2     ecut=    40.00 Ry     beta= 0.70
     Davidson diagonalization with overlap
     ethr =  1.38E-03,  avg # of iterations =  5.5

     negative rho (up, down):  3.689E-04 0.000E+00

     total cpu time spent up to now is        1.9 secs

     total energy              =     -23.89799222 Ry
     estimated scf accuracy    <       0.01504473 Ry

     iteration #  3     ecut=    40.00 Ry     beta= 0.70
     Davidson diagonalization with overlap
     c_bands:  1 eigenvalues not converged
     c_bands:  1 eigenvalues not converged
     ethr =  1.88E-04,  avg # of iterations = 14.5

     negative rho (up, down):  3.301E-04 0.000E+00

     total cpu time spent up to now is        2.9 secs

     total energy              =     -23.90951972 Ry
     estimated scf accuracy    <       0.00546825 Ry

     iteration #  4     ecut=    40.00 Ry     beta= 0.70
     Davidson diagonalization with overlap
     ethr =  6.84E-05,  avg # of iterations =  4.3

     negative rho (up, down):  5.079E-04 0.000E+00

     total cpu time spent up to now is        3.4 secs

     total energy              =     -23.90846724 Ry
     estimated scf accuracy    <       0.00263033 Ry

     iteration #  5     ecut=    40.00 Ry     beta= 0.70
     Davidson diagonalization with overlap
     ethr =  3.29E-05,  avg # of iterations =  6.5

     negative rho (up, down):  4.313E-04 0.000E+00

     total cpu time spent up to now is        4.0 secs

     total energy              =     -23.90909441 Ry
     estimated scf accuracy    <       0.00132359 Ry

     iteration #  6     ecut=    40.00 Ry     beta= 0.70
     Davidson diagonalization with overlap
     ethr =  1.65E-05,  avg # of iterations =  3.4

     negative rho (up, down):  4.158E-04 0.000E+00

     total cpu time spent up to now is        4.4 secs

     total energy              =     -23.90916715 Ry
     estimated scf accuracy    <       0.00008287 Ry

     iteration #  7     ecut=    40.00 Ry     beta= 0.70
     Davidson diagonalization with overlap
     c_bands:  1 eigenvalues not converged
     c_bands:  1 eigenvalues not converged
     c_bands:  1 eigenvalues not converged
     c_bands:  1 eigenvalues not converged
     ethr =  1.04E-06,  avg # of iterations = 12.5

     negative rho (up, down):  4.214E-04 0.000E+00

     total cpu time spent up to now is        5.3 secs

     total energy              =     -23.90930739 Ry
     estimated scf accuracy    <       0.00001103 Ry

     iteration #  8     ecut=    40.00 Ry     beta= 0.70
     Davidson diagonalization with overlap
     c_bands:  1 eigenvalues not converged
     ethr =  1.38E-07,  avg # of iterations =  5.1

     negative rho (up, down):  4.254E-04 0.000E+00

     total cpu time spent up to now is        5.9 secs

     total energy              =     -23.90931428 Ry
     estimated scf accuracy    <       0.00000239 Ry

     iteration #  9     ecut=    40.00 Ry     beta= 0.70
     Davidson diagonalization with overlap
     ethr =  2.99E-08,  avg # of iterations =  4.3

     negative rho (up, down):  4.238E-04 0.000E+00

     total cpu time spent up to now is        6.5 secs

     total energy              =     -23.90931463 Ry
     estimated scf accuracy    <       0.00000436 Ry

     iteration # 10     ecut=    40.00 Ry     beta= 0.70
     Davidson diagonalization with overlap
     ethr =  2.99E-08,  avg # of iterations =  1.8

     negative rho (up, down):  4.223E-04 0.000E+00

     total cpu time spent up to now is        6.9 secs

     End of self-consistent calculation

          k = 0.0000 0.0000 0.0000 (  2289 PWs)   bands (ev):

   -21.2559  -9.3566  -4.7970  -4.7970   1.1574   1.8999   2.1258   4.1395

          k = 0.0000 0.0962 0.0000 (  2286 PWs)   bands (ev):

   -21.0920  -9.1603  -5.4459  -5.1354   1.3833   2.1266   2.3515   4.3628

          k = 0.0000 0.1925 0.0000 (  2280 PWs)   bands (ev):

   -20.6019  -8.5768  -7.0803  -5.9280   2.0608   2.8057   3.0288   5.0304

          k = 0.0000 0.2887 0.0000 (  2278 PWs)   bands (ev):

   -19.7915  -9.1759  -7.6253  -6.8080   3.1885   3.9280   4.1567   5.5142

          k = 0.0000 0.3849 0.0000 (  2272 PWs)   bands (ev):

   -18.6728 -11.3775  -7.5417  -6.3560   3.1928   4.7604   5.5364   5.7115

          k = 0.0000 0.4811 0.0000 (  2282 PWs)   bands (ev):

   -17.2767 -13.4771  -8.0149  -4.9321   1.0565   5.7572   6.7908   7.5528

          k = 0.0000-0.5774 0.0000 (  2260 PWs)   bands (ev):

   -16.0101 -14.9861  -8.1773  -4.0867  -0.0423   5.6799   9.1638   9.2701

          k = 0.0833 0.1443 0.0000 (  2291 PWs)   bands (ev):

   -20.7650  -8.7703  -6.4773  -5.8128   1.8351   2.5796   2.8032   4.8091

          k = 0.0833 0.2406 0.0000 (  2281 PWs)   bands (ev):

   -20.1148  -8.1842  -8.0016  -6.8107   2.7383   3.4830   3.7064   5.6902

          k = 0.0833 0.3368 0.0000 (  2266 PWs)   bands (ev):

   -19.1501 -10.2552  -7.6969  -6.8848   4.0896   4.1988   4.8650   5.0591

          k = 0.0833 0.4330 0.0000 (  2279 PWs)   bands (ev):

   -17.8896 -12.3769  -8.3318  -5.5040   2.0047   5.8778   6.5716   6.6443

          k = 0.0833 0.5292 0.0000 (  2273 PWs)   bands (ev):

   -16.4091 -14.3189  -8.6602  -4.1936   0.2343   6.4163   8.1158   9.1112

          k = 0.1667 0.2887 0.0000 (  2273 PWs)   bands (ev):

   -19.3102  -9.5121  -8.1723  -7.0637   3.8655   4.6080   4.6648   4.8355

          k = 0.1667 0.3849 0.0000 (  2279 PWs)   bands (ev):

   -18.2024 -11.2381  -9.2281  -5.8096   2.7149   5.4375   6.1694   6.4125

          k = 0.1667 0.4811 0.0000 (  2273 PWs)   bands (ev):

   -16.8263 -13.1487  -9.8034  -4.3817   0.8007   7.4375   8.1188   8.2877

          k = 0.1667 0.5774 0.0000 (  2254 PWs)   bands (ev):

   -15.5893 -14.5860  -9.9881  -3.4881  -0.2686   8.2212   9.7602   9.8901

          k = 0.2500 0.4330 0.0000 (  2269 PWs)   bands (ev):

   -16.9741 -12.2711 -10.7121  -4.4658   1.0990   7.2185   7.8505   8.2068

          k = 0.2500 0.5292 0.0000 (  2253 PWs)   bands (ev):

   -15.5511 -13.6930 -11.4190  -3.0788  -0.4226   9.0954   9.3788  10.3877

          k = 0.3333 0.5774 0.0000 (  2259 PWs)   bands (ev):

   -14.3331 -14.3331 -12.3179  -1.7217  -1.7217   8.8791  11.1051  11.1058

     the Fermi energy is    -1.6626 ev

!    total energy              =     -23.90931473 Ry
     estimated scf accuracy    <       0.00000036 Ry
     smearing contrib. (-TS)   =      -0.00022994 Ry
     internal energy E=F+TS    =     -23.90908479 Ry

     The total energy is F=E-TS. E is the sum of the following terms:
     one-electron contribution =    -157.39607031 Ry
     hartree contribution      =      80.16114386 Ry
     xc contribution           =      -8.30380544 Ry
     ewald contribution        =      61.62964709 Ry

     convergence has been achieved in  10 iterations

     Writing all to output data dir ../tmp/gr.save/

     init_run     :      0.47s CPU      0.50s WALL (       1 calls)
     electrons    :      5.46s CPU      6.42s WALL (       1 calls)

     Called by init_run:
     wfcinit      :      0.21s CPU      0.21s WALL (       1 calls)
     potinit      :      0.02s CPU      0.04s WALL (       1 calls)
     hinit0       :      0.23s CPU      0.24s WALL (       1 calls)

     Called by electrons:
     c_bands      :      4.65s CPU      5.44s WALL (      10 calls)
     sum_band     :      0.56s CPU      0.57s WALL (      10 calls)
     v_of_rho     :      0.14s CPU      0.15s WALL (      11 calls)
     newd         :      0.08s CPU      0.08s WALL (      11 calls)
     mix_rho      :      0.02s CPU      0.02s WALL (      10 calls)

     Called by c_bands:
     init_us_2    :      0.10s CPU      0.10s WALL (     399 calls)
     init_us_2:cp :      0.10s CPU      0.10s WALL (     399 calls)
     cegterg      :      4.41s CPU      4.52s WALL (     190 calls)

     Called by *egterg:
     cdiaghg      :      0.08s CPU      0.08s WALL (    1439 calls)
     h_psi        :      3.36s CPU      3.45s WALL (    1458 calls)
     s_psi        :      0.18s CPU      0.19s WALL (    1458 calls)
     g_psi        :      0.03s CPU      0.03s WALL (    1249 calls)

     Called by h_psi:
     h_psi:calbec :      0.20s CPU      0.21s WALL (    1458 calls)
     vloc_psi     :      2.95s CPU      3.03s WALL (    1458 calls)
     add_vuspsi   :      0.18s CPU      0.19s WALL (    1458 calls)

     General routines
     calbec       :      0.25s CPU      0.26s WALL (    1648 calls)
     fft          :      0.19s CPU      0.20s WALL (     121 calls)
     ffts         :      0.00s CPU      0.00s WALL (      10 calls)
     fftw         :      2.93s CPU      3.01s WALL (   13528 calls)


     PWSCF        :      5.96s CPU      7.62s WALL


   This run was terminated on:   0:31:44  25Aug2023            

=------------------------------------------------------------------------------=
   JOB DONE.
=------------------------------------------------------------------------------=
