
     Program PWSCF v.7.0 starts on 25Aug2023 at  0:30:52 

     This program is part of the open-source Quantum ESPRESSO suite
     for quantum simulation of materials; please cite
         "P. Giannozzi et al., J. Phys.:Condens. Matter 21 395502 (2009);
         "P. Giannozzi et al., J. Phys.:Condens. Matter 29 465901 (2017);
         "P. Giannozzi et al., J. Chem. Phys. 152 154105 (2020);
          URL http://www.quantum-espresso.org", 
     in publications or presentations arising from this work. More details at
     http://www.quantum-espresso.org/quote

     Serial version
     6265 MiB available memory on the printing compute node when the environment starts

     Waiting for input...
     Reading input from standard input

     Current dimensions of program PWSCF are:
     Max number of different atomic species (ntypx) = 10
     Max number of k-points (npk) =  40000
     Max angular momentum in pseudopotentials (lmaxx) =  4

     G-vector sticks info
     --------------------
     sticks:   dense  smooth     PW     G-vecs:    dense   smooth      PW
     Sum         241     241     85                18211    18211    3425

     Using Slab Decomposition



     bravais-lattice index     =            4
     lattice parameter (alat)  =       4.6561  a.u.
     unit-cell volume          =     532.1899 (a.u.)^3
     number of atoms/cell      =            2
     number of atomic types    =            1
     number of electrons       =         8.00
     number of Kohn-Sham states=            8
     kinetic-energy cutoff     =      40.0000  Ry
     charge density cutoff     =     160.0000  Ry
     scf convergence threshold =      1.0E-06
     mixing beta               =       0.7000
     number of iterations used =            8  plain     mixing
     Exchange-correlation= PBE
                           (   1   4   3   4   0   0   0)

     celldm(1)=   4.656107  celldm(2)=   0.000000  celldm(3)=   6.087896
     celldm(4)=   0.000000  celldm(5)=   0.000000  celldm(6)=   0.000000

     crystal axes: (cart. coord. in units of alat)
               a(1) = (   1.000000   0.000000   0.000000 )  
               a(2) = (  -0.500000   0.866025   0.000000 )  
               a(3) = (   0.000000   0.000000   6.087896 )  

     reciprocal axes: (cart. coord. in units 2 pi/alat)
               b(1) = (  1.000000  0.577350 -0.000000 )  
               b(2) = (  0.000000  1.154701  0.000000 )  
               b(3) = (  0.000000 -0.000000  0.164260 )  


     PseudoPot. # 1 for C  read from file:
     ../pseudo/C.pbe-n-rrkjus_psl.0.1.UPF
     MD5 check sum: 96a6a315177d77e6c95bf6fd3870f9e3
     Pseudo is Ultrasoft + core correction, Zval =  4.0
     Generated using &quot;atomic&quot; code by A. Dal Corso  v.6.3MaX
     Using radial grid of 1073 points,  4 beta functions with: 
                l(1) =   0
                l(2) =   0
                l(3) =   1
                l(4) =   1
     Q(r) pseudized with 0 coefficients 


     atomic species   valence    mass     pseudopotential
        C              4.00    12.01070     C ( 1.00)

     24 Sym. Ops., with inversion, found



   Cartesian axes

     site n.     atom                  positions (alat units)
         1           C   tau(   1) = (   0.0000000   0.5773503   3.0439478  )
         2           C   tau(   2) = (   0.5000000   0.2886751   3.0439478  )

     number of k points=    19  Marzari-Vanderbilt smearing, width (Ry)=  0.0100
                       cart. coord. in units 2pi/alat
        k(    1) = (   0.0000000   0.0000000   0.0000000), wk =   0.0138889
        k(    2) = (   0.0000000   0.0962250   0.0000000), wk =   0.0833333
        k(    3) = (   0.0000000   0.1924501   0.0000000), wk =   0.0833333
        k(    4) = (   0.0000000   0.2886751   0.0000000), wk =   0.0833333
        k(    5) = (   0.0000000   0.3849002   0.0000000), wk =   0.0833333
        k(    6) = (   0.0000000   0.4811252   0.0000000), wk =   0.0833333
        k(    7) = (   0.0000000  -0.5773503   0.0000000), wk =   0.0416667
        k(    8) = (   0.0833333   0.1443376   0.0000000), wk =   0.0833333
        k(    9) = (   0.0833333   0.2405626   0.0000000), wk =   0.1666667
        k(   10) = (   0.0833333   0.3367877   0.0000000), wk =   0.1666667
        k(   11) = (   0.0833333   0.4330127   0.0000000), wk =   0.1666667
        k(   12) = (   0.0833333   0.5292377   0.0000000), wk =   0.1666667
        k(   13) = (   0.1666667   0.2886751   0.0000000), wk =   0.0833333
        k(   14) = (   0.1666667   0.3849002   0.0000000), wk =   0.1666667
        k(   15) = (   0.1666667   0.4811252   0.0000000), wk =   0.1666667
        k(   16) = (   0.1666667   0.5773503   0.0000000), wk =   0.0833333
        k(   17) = (   0.2500000   0.4330127   0.0000000), wk =   0.0833333
        k(   18) = (   0.2500000   0.5292377   0.0000000), wk =   0.1666667
        k(   19) = (   0.3333333   0.5773503   0.0000000), wk =   0.0277778

     Dense  grid:    18211 G-vectors     FFT dimensions: (  20,  20, 120)

     Estimated max dynamical RAM per process >      29.77 MB

     Check: negative core charge=   -0.000016

     Initial potential from superposition of free atoms

     starting charge       7.9999, renormalised to       8.0000

     negative rho (up, down):  1.028E-04 0.000E+00
     Starting wfcs are    8 randomized atomic wfcs

     total cpu time spent up to now is        0.7 secs

     Self-consistent Calculation

     iteration #  1     ecut=    40.00 Ry     beta= 0.70
     Davidson diagonalization with overlap
     ethr =  1.00E-02,  avg # of iterations =  7.9

     negative rho (up, down):  1.123E-05 0.000E+00

     total cpu time spent up to now is        1.3 secs

     total energy              =     -23.85723317 Ry
     estimated scf accuracy    <       0.11071034 Ry

     iteration #  2     ecut=    40.00 Ry     beta= 0.70
     Davidson diagonalization with overlap
     ethr =  1.38E-03,  avg # of iterations =  5.5

     negative rho (up, down):  3.688E-04 0.000E+00

     total cpu time spent up to now is        1.8 secs

     total energy              =     -23.89773582 Ry
     estimated scf accuracy    <       0.01504255 Ry

     iteration #  3     ecut=    40.00 Ry     beta= 0.70
     Davidson diagonalization with overlap
     c_bands:  1 eigenvalues not converged
     c_bands:  1 eigenvalues not converged
     c_bands:  1 eigenvalues not converged
     ethr =  1.88E-04,  avg # of iterations = 14.5

     negative rho (up, down):  3.301E-04 0.000E+00

     total cpu time spent up to now is        2.8 secs

     total energy              =     -23.90925824 Ry
     estimated scf accuracy    <       0.00546599 Ry

     iteration #  4     ecut=    40.00 Ry     beta= 0.70
     Davidson diagonalization with overlap
     ethr =  6.83E-05,  avg # of iterations =  4.2

     negative rho (up, down):  5.065E-04 0.000E+00

     total cpu time spent up to now is        3.3 secs

     total energy              =     -23.90820540 Ry
     estimated scf accuracy    <       0.00263281 Ry

     iteration #  5     ecut=    40.00 Ry     beta= 0.70
     Davidson diagonalization with overlap
     c_bands:  1 eigenvalues not converged
     ethr =  3.29E-05,  avg # of iterations =  6.8

     negative rho (up, down):  4.317E-04 0.000E+00

     total cpu time spent up to now is        3.8 secs

     total energy              =     -23.90882752 Ry
     estimated scf accuracy    <       0.00140222 Ry

     iteration #  6     ecut=    40.00 Ry     beta= 0.70
     Davidson diagonalization with overlap
     ethr =  1.75E-05,  avg # of iterations =  3.4

     negative rho (up, down):  4.162E-04 0.000E+00

     total cpu time spent up to now is        4.3 secs

     total energy              =     -23.90889915 Ry
     estimated scf accuracy    <       0.00008753 Ry

     iteration #  7     ecut=    40.00 Ry     beta= 0.70
     Davidson diagonalization with overlap
     c_bands:  1 eigenvalues not converged
     c_bands:  1 eigenvalues not converged
     c_bands:  1 eigenvalues not converged
     ethr =  1.09E-06,  avg # of iterations = 11.8

     negative rho (up, down):  4.216E-04 0.000E+00

     total cpu time spent up to now is        5.1 secs

     total energy              =     -23.90904553 Ry
     estimated scf accuracy    <       0.00001123 Ry

     iteration #  8     ecut=    40.00 Ry     beta= 0.70
     Davidson diagonalization with overlap
     c_bands:  1 eigenvalues not converged
     ethr =  1.40E-07,  avg # of iterations =  4.9

     negative rho (up, down):  4.233E-04 0.000E+00

     total cpu time spent up to now is        5.6 secs

     total energy              =     -23.90905144 Ry
     estimated scf accuracy    <       0.00000278 Ry

     iteration #  9     ecut=    40.00 Ry     beta= 0.70
     Davidson diagonalization with overlap
     ethr =  3.48E-08,  avg # of iterations =  5.0

     negative rho (up, down):  4.224E-04 0.000E+00

     total cpu time spent up to now is        6.1 secs

     total energy              =     -23.90905272 Ry
     estimated scf accuracy    <       0.00000106 Ry

     iteration # 10     ecut=    40.00 Ry     beta= 0.70
     Davidson diagonalization with overlap
     c_bands:  1 eigenvalues not converged
     ethr =  1.32E-08,  avg # of iterations =  3.1

     negative rho (up, down):  4.223E-04 0.000E+00

     total cpu time spent up to now is        6.5 secs

     End of self-consistent calculation

          k = 0.0000 0.0000 0.0000 (  2289 PWs)   bands (ev):

   -21.2502  -9.3520  -4.7906  -4.7906   1.1570   1.8992   2.1254   4.1391

          k = 0.0000 0.0962 0.0000 (  2286 PWs)   bands (ev):

   -21.0862  -9.1558  -5.4395  -5.1291   1.3829   2.1259   2.3511   4.3624

          k = 0.0000 0.1925 0.0000 (  2280 PWs)   bands (ev):

   -20.5962  -8.5723  -7.0740  -5.9216   2.0605   2.8050   3.0284   5.0300

          k = 0.0000 0.2887 0.0000 (  2278 PWs)   bands (ev):

   -19.7858  -9.1697  -7.6207  -6.8017   3.1883   3.9274   4.1563   5.5189

          k = 0.0000 0.3849 0.0000 (  2272 PWs)   bands (ev):

   -18.6670 -11.3715  -7.5354  -6.3514   3.1976   4.7602   5.5361   5.7116

          k = 0.0000 0.4811 0.0000 (  2282 PWs)   bands (ev):

   -17.2709 -13.4712  -8.0086  -4.9274   1.0613   5.7628   6.7907   7.5500

          k = 0.0000-0.5774 0.0000 (  2260 PWs)   bands (ev):

   -16.0042 -14.9802  -8.1710  -4.0819  -0.0377   5.6854   9.1642   9.2712

          k = 0.0833 0.1443 0.0000 (  2291 PWs)   bands (ev):

   -20.7593  -8.7658  -6.4710  -5.8064   1.8348   2.5789   2.8029   4.8086

          k = 0.0833 0.2406 0.0000 (  2281 PWs)   bands (ev):

   -20.1090  -8.1780  -7.9971  -6.8044   2.7380   3.4824   3.7061   5.6899

          k = 0.0833 0.3368 0.0000 (  2266 PWs)   bands (ev):

   -19.1443 -10.2491  -7.6906  -6.8802   4.0894   4.2036   4.8649   5.0589

          k = 0.0833 0.4330 0.0000 (  2279 PWs)   bands (ev):

   -17.8838 -12.3709  -8.3255  -5.4994   2.0095   5.8778   6.5766   6.6422

          k = 0.0833 0.5292 0.0000 (  2273 PWs)   bands (ev):

   -16.4033 -14.3130  -8.6540  -4.1888   0.2390   6.4219   8.1158   9.1108

          k = 0.1667 0.2887 0.0000 (  2273 PWs)   bands (ev):

   -19.3045  -9.5060  -8.1661  -7.0591   3.8653   4.6073   4.6698   4.8351

          k = 0.1667 0.3849 0.0000 (  2279 PWs)   bands (ev):

   -18.1966 -11.2320  -9.2219  -5.8050   2.7199   5.4373   6.1688   6.4121

          k = 0.1667 0.4811 0.0000 (  2273 PWs)   bands (ev):

   -16.8204 -13.1427  -9.7973  -4.3769   0.8056   7.4376   8.1185   8.2928

          k = 0.1667 0.5774 0.0000 (  2254 PWs)   bands (ev):

   -15.5834 -14.5801  -9.9819  -3.4833  -0.2638   8.2268   9.7606   9.8001

          k = 0.2500 0.4330 0.0000 (  2269 PWs)   bands (ev):

   -16.9683 -12.2651 -10.7060  -4.4611   1.1040   7.2185   7.8504   8.2064

          k = 0.2500 0.5292 0.0000 (  2253 PWs)   bands (ev):

   -15.5452 -13.6870 -11.4130  -3.0740  -0.4178   9.0975   9.3789  10.3835

          k = 0.3333 0.5774 0.0000 (  2259 PWs)   bands (ev):

   -14.3272 -14.3272 -12.3119  -1.7168  -1.7168   8.8818  11.1079  11.1084

     the Fermi energy is    -1.6979 ev

!    total energy              =     -23.90905293 Ry
     estimated scf accuracy    <          6.9E-09 Ry
     smearing contrib. (-TS)   =      -0.00009116 Ry
     internal energy E=F+TS    =     -23.90896177 Ry

     The total energy is F=E-TS. E is the sum of the following terms:
     one-electron contribution =    -157.39341338 Ry
     hartree contribution      =      80.15824578 Ry
     xc contribution           =      -8.30344126 Ry
     ewald contribution        =      61.62964709 Ry

     convergence has been achieved in  10 iterations

     Writing all to output data dir ../tmp/gr.save/

     init_run     :      0.44s CPU      0.49s WALL (       1 calls)
     electrons    :      5.13s CPU      6.02s WALL (       1 calls)

     Called by init_run:
     wfcinit      :      0.19s CPU      0.21s WALL (       1 calls)
     potinit      :      0.01s CPU      0.03s WALL (       1 calls)
     hinit0       :      0.23s CPU      0.23s WALL (       1 calls)

     Called by electrons:
     c_bands      :      4.39s CPU      5.10s WALL (      10 calls)
     sum_band     :      0.52s CPU      0.53s WALL (      10 calls)
     v_of_rho     :      0.13s CPU      0.13s WALL (      11 calls)
     newd         :      0.06s CPU      0.07s WALL (      11 calls)
     mix_rho      :      0.02s CPU      0.02s WALL (      10 calls)

     Called by c_bands:
     init_us_2    :      0.09s CPU      0.09s WALL (     399 calls)
     init_us_2:cp :      0.09s CPU      0.09s WALL (     399 calls)
     cegterg      :      4.17s CPU      4.24s WALL (     190 calls)

     Called by *egterg:
     cdiaghg      :      0.07s CPU      0.07s WALL (    1466 calls)
     h_psi        :      3.21s CPU      3.28s WALL (    1485 calls)
     s_psi        :      0.17s CPU      0.17s WALL (    1485 calls)
     g_psi        :      0.03s CPU      0.03s WALL (    1276 calls)

     Called by h_psi:
     h_psi:calbec :      0.18s CPU      0.19s WALL (    1485 calls)
     vloc_psi     :      2.83s CPU      2.89s WALL (    1485 calls)
     add_vuspsi   :      0.17s CPU      0.18s WALL (    1485 calls)

     General routines
     calbec       :      0.23s CPU      0.23s WALL (    1675 calls)
     fft          :      0.19s CPU      0.20s WALL (     121 calls)
     ffts         :      0.00s CPU      0.00s WALL (      10 calls)
     fftw         :      2.84s CPU      2.90s WALL (   13550 calls)


     PWSCF        :      5.63s CPU      7.12s WALL


   This run was terminated on:   0:30:59  25Aug2023            

=------------------------------------------------------------------------------=
   JOB DONE.
=------------------------------------------------------------------------------=
