
     Program PWSCF v.6.4.1 starts on 14Aug2023 at 22:49:49 

     This program is part of the open-source Quantum ESPRESSO suite
     for quantum simulation of materials; please cite
         "P. Giannozzi et al., J. Phys.:Condens. Matter 21 395502 (2009);
         "P. Giannozzi et al., J. Phys.:Condens. Matter 29 465901 (2017);
          URL http://www.quantum-espresso.org", 
     in publications or presentations arising from this work. More details at
     http://www.quantum-espresso.org/quote

     Parallel version (MPI & OpenMP), running on      16 processor cores
     Number of MPI processes:                 1
     Threads/MPI process:                    16

     MPI processes distributed on     1 nodes
     Waiting for input...
     Reading input from standard input

     Current dimensions of program PWSCF are:
     Max number of different atomic species (ntypx) = 10
     Max number of k-points (npk) =  40000
     Max angular momentum in pseudopotentials (lmaxx) =  3

     Subspace diagonalization in iterative solution of the eigenvalue problem:
     a serial algorithm will be used


     G-vector sticks info
     --------------------
     sticks:   dense  smooth     PW     G-vecs:    dense   smooth      PW
     Sum         673     301     91                44787    13291    2371



     bravais-lattice index     =            4
     lattice parameter (alat)  =       4.6625  a.u.
     unit-cell volume          =     277.6087 (a.u.)^3
     number of atoms/cell      =            4
     number of atomic types    =            1
     number of electrons       =        16.00
     number of Kohn-Sham states=           12
     kinetic-energy cutoff     =      50.0000  Ry
     charge density cutoff     =     450.0000  Ry
     convergence threshold     =      1.0E-06
     mixing beta               =       0.7000
     number of iterations used =            8  plain     mixing
     Exchange-correlation      = PBE ( 1  4  3  4 0 0)
     nstep                     =           50


     celldm(1)=   4.662502  celldm(2)=   0.000000  celldm(3)=   3.162608
     celldm(4)=   0.000000  celldm(5)=   0.000000  celldm(6)=   0.000000

     crystal axes: (cart. coord. in units of alat)
               a(1) = (   1.000000   0.000000   0.000000 )  
               a(2) = (  -0.500000   0.866025   0.000000 )  
               a(3) = (   0.000000   0.000000   3.162608 )  

     reciprocal axes: (cart. coord. in units 2 pi/alat)
               b(1) = (  1.000000  0.577350 -0.000000 )  
               b(2) = (  0.000000  1.154701  0.000000 )  
               b(3) = (  0.000000 -0.000000  0.316195 )  


     PseudoPot. # 1 for C  read from file:
     .\C.pbe-n-rrkjus_psl.1.0.0.UPF
     MD5 check sum: 1fdd950c42eb37d8afe3dd2f8d12311e
     Pseudo is Ultrasoft + core correction, Zval =  4.0
     Generated using "atomic" code by A. Dal Corso v.6.3MaX
     Using radial grid of 1073 points,  4 beta functions with: 
                l(1) =   0
                l(2) =   0
                l(3) =   1
                l(4) =   1
     Q(r) pseudized with 0 coefficients 


     atomic species   valence    mass     pseudopotential
        C              4.00    12.01070     C ( 1.00)

     24 Sym. Ops., with inversion, found (12 have fractional translation)



   Cartesian axes

     site n.     atom                  positions (alat units)
         1           C   tau(   1) = (   0.0000000   0.0000000   0.7906519  )
         2           C   tau(   2) = (   0.0000000   0.0000000   2.3719557  )
         3           C   tau(   3) = (  -0.0000005   0.5773506   0.7906519  )
         4           C   tau(   4) = (   0.5000005   0.2886748   2.3719557  )

     number of k points=    14  gaussian smearing, width (Ry)=  0.0100
                       cart. coord. in units 2pi/alat
        k(    1) = (   0.0000000   0.0000000   0.0000000), wk =   0.0277778
        k(    2) = (   0.0000000   0.0000000  -0.1580974), wk =   0.0277778
        k(    3) = (   0.0000000   0.1924501   0.0000000), wk =   0.1666667
        k(    4) = (   0.0000000   0.1924501  -0.1580974), wk =   0.1666667
        k(    5) = (   0.0000000   0.3849002   0.0000000), wk =   0.1666667
        k(    6) = (   0.0000000   0.3849002  -0.1580974), wk =   0.1666667
        k(    7) = (   0.0000000  -0.5773503   0.0000000), wk =   0.0833333
        k(    8) = (   0.0000000  -0.5773503  -0.1580974), wk =   0.0833333
        k(    9) = (   0.1666667   0.2886751   0.0000000), wk =   0.1666667
        k(   10) = (   0.1666667   0.2886751  -0.1580974), wk =   0.1666667
        k(   11) = (   0.1666667   0.4811252   0.0000000), wk =   0.3333333
        k(   12) = (   0.1666667   0.4811252  -0.1580974), wk =   0.3333333
        k(   13) = (   0.3333333   0.5773503   0.0000000), wk =   0.0555556
        k(   14) = (   0.3333333   0.5773503  -0.1580974), wk =   0.0555556

     Dense  grid:    44787 G-vectors     FFT dimensions: (  32,  32, 100)

     Smooth grid:    13291 G-vectors     FFT dimensions: (  24,  24,  72)

     Estimated max dynamical RAM per process >      68.06 MB

     Check: negative core charge=   -0.000001

     Initial potential from superposition of free atoms

     starting charge   15.99983, renormalised to   16.00000
     Starting wfcs are   16 randomized atomic wfcs

     total cpu time spent up to now is        3.9 secs

     Self-consistent Calculation

     iteration #  1     ecut=    50.00 Ry     beta= 0.70
     Davidson diagonalization with overlap
     ethr =  1.00E-02,  avg # of iterations =  3.1

     total cpu time spent up to now is        5.1 secs

     total energy              =     -49.64589702 Ry
     Harris-Foulkes estimate   =     -49.87914933 Ry
     estimated scf accuracy    <       0.39553223 Ry

     iteration #  2     ecut=    50.00 Ry     beta= 0.70
     Davidson diagonalization with overlap
     ethr =  2.47E-03,  avg # of iterations =  2.2

     total cpu time spent up to now is        6.1 secs

     total energy              =     -49.70732712 Ry
     Harris-Foulkes estimate   =     -49.70771269 Ry
     estimated scf accuracy    <       0.00492873 Ry

     iteration #  3     ecut=    50.00 Ry     beta= 0.70
     Davidson diagonalization with overlap
     ethr =  3.08E-05,  avg # of iterations =  4.9

     total cpu time spent up to now is        7.2 secs

     total energy              =     -49.70778672 Ry
     Harris-Foulkes estimate   =     -49.70773571 Ry
     estimated scf accuracy    <       0.00033917 Ry

     iteration #  4     ecut=    50.00 Ry     beta= 0.70
     Davidson diagonalization with overlap
     ethr =  2.12E-06,  avg # of iterations =  2.3

     total cpu time spent up to now is        8.2 secs

     total energy              =     -49.70780439 Ry
     Harris-Foulkes estimate   =     -49.70780422 Ry
     estimated scf accuracy    <       0.00000176 Ry

     iteration #  5     ecut=    50.00 Ry     beta= 0.70
     Davidson diagonalization with overlap
     ethr =  1.10E-08,  avg # of iterations =  2.5

     total cpu time spent up to now is        9.4 secs

     total energy              =     -49.70780513 Ry
     Harris-Foulkes estimate   =     -49.70780547 Ry
     estimated scf accuracy    <       0.00000120 Ry

     iteration #  6     ecut=    50.00 Ry     beta= 0.70
     Davidson diagonalization with overlap
     ethr =  7.50E-09,  avg # of iterations =  1.5

     total cpu time spent up to now is       10.5 secs

     End of self-consistent calculation

          k = 0.0000 0.0000 0.0000 (  1641 PWs)   bands (ev):

   -14.1145 -14.0305  -2.5874  -1.7379   2.3634   2.3635   2.3668   2.3668
     8.8210  13.0286  13.7462  13.7468

          k = 0.0000 0.0000-0.1581 (  1630 PWs)   bands (ev):

   -14.0729 -14.0729  -2.1890  -2.1890   2.3651   2.3651   2.3652   2.3652
    10.4818  10.4818  13.7524  13.7525

          k = 0.0000 0.1925 0.0000 (  1667 PWs)   bands (ev):

   -13.4602 -13.3802  -1.7973  -0.9755   0.0743   0.0884   1.2318   1.2398
     9.6615  13.7289  13.7425  13.7979

          k = 0.0000 0.1925-0.1581 (  1660 PWs)   bands (ev):

   -13.4206 -13.4206  -1.4112  -1.4112   0.0814   0.0814   1.2358   1.2358
    11.2783  11.2783  13.7786  13.7786

          k = 0.0000 0.3849 0.0000 (  1661 PWs)   bands (ev):

   -11.5302 -11.4616  -4.2283  -4.1956  -0.3816  -0.3710   0.4660   1.1795
    10.1738  10.5214  12.1518  13.0986

          k = 0.0000 0.3849-0.1581 (  1666 PWs)   bands (ev):

   -11.4962 -11.4962  -4.2120  -4.2120  -0.3764  -0.3764   0.8045   0.8045
    10.3243  10.3243  13.0871  13.0871

          k = 0.0000-0.5774 0.0000 (  1684 PWs)   bands (ev):

    -8.8592  -8.8303  -7.8201  -7.7975  -1.0171  -1.0058   2.9231   3.1978
     6.9717   7.3137  12.7578  12.8764

          k = 0.0000-0.5774-0.1581 (  1656 PWs)   bands (ev):

    -8.8444  -8.8444  -7.8094  -7.8094  -1.0114  -1.0114   3.0690   3.0690
     7.1000   7.1000  12.8166  12.8166

          k = 0.1667 0.2887 0.0000 (  1647 PWs)   bands (ev):

   -12.1678 -12.0955  -2.3577  -2.3452  -1.0085  -0.9995  -0.2596   0.4985
    11.3436  11.7116  11.8796  15.0667

          k = 0.1667 0.2887-0.1581 (  1654 PWs)   bands (ev):

   -12.1320 -12.1320  -2.3515  -2.3515  -1.0041  -1.0041   0.0984   0.0984
    11.7946  11.7946  12.8479  12.8479

          k = 0.1667 0.4811 0.0000 (  1651 PWs)   bands (ev):

    -9.6829  -9.6257  -5.9996  -5.9628  -2.6449  -2.6238   2.5064   3.0602
     7.8024   8.1057  14.6109  15.3486

          k = 0.1667 0.4811-0.1581 (  1658 PWs)   bands (ev):

    -9.6545  -9.6545  -5.9813  -5.9813  -2.6344  -2.6344   2.7745   2.7745
     7.9429   7.9429  15.3547  15.3547

          k = 0.3333 0.5774 0.0000 (  1653 PWs)   bands (ev):

    -7.1934  -7.1693  -7.1693  -7.1461  -5.1361  -5.1361   5.1811   5.4255
     5.4255   5.6910  16.2032  16.2032

          k = 0.3333 0.5774-0.1581 (  1674 PWs)   bands (ev):

    -7.1699  -7.1699  -7.1692  -7.1692  -5.1365  -5.1365   5.4267   5.4267
     5.4302   5.4302  15.7645  15.7645

     the Fermi energy is     5.4276 ev

!    total energy              =     -49.70780536 Ry
     Harris-Foulkes estimate   =     -49.70780535 Ry
     estimated scf accuracy    <       0.00000002 Ry

     The total energy is the sum of the following terms:

     one-electron contribution =     -23.60795536 Ry
     hartree contribution      =      18.96266601 Ry
     xc contribution           =     -18.54945341 Ry
     ewald contribution        =     -26.51211290 Ry
     smearing contrib. (-TS)   =      -0.00094970 Ry

     convergence has been achieved in   6 iterations

     Forces acting on atoms (cartesian axes, Ry/au):

     atom    1 type  1   force =     0.00000000    0.00000000    0.00000000
     atom    2 type  1   force =     0.00000000   -0.00000000    0.00000000
     atom    3 type  1   force =     0.00000000   -0.00000000    0.00000000
     atom    4 type  1   force =     0.00000000    0.00000000    0.00000000

     Total force =     0.000000     Total SCF correction =     0.000000


     Computing stress (Cartesian axis) and pressure

          total   stress  (Ry/bohr**3)                   (kbar)     P=   -2.32
  -0.00002545   0.00000000   0.00000000         -3.74      0.00      0.00
   0.00000000  -0.00002545   0.00000000          0.00     -3.74      0.00
   0.00000000   0.00000000   0.00000364          0.00      0.00      0.54


     BFGS Geometry Optimization

     number of scf cycles    =   1
     number of bfgs steps    =   0

     enthalpy           new  =     -49.7078053588 Ry

     new trust radius        =       0.0021203993 bohr
     new conv_thr            =       0.0000010000 Ry

     new unit-cell volume =    277.28082 a.u.^3 (    41.08878 Ang^3 )
     density =      1.94157 g/cm^3

CELL_PARAMETERS (alat=  4.66250239)
   0.999363687   0.000000000   0.000000000
  -0.499681843   0.865474340   0.000000000
   0.000000000   0.000000000   3.162895669

ATOMIC_POSITIONS (crystal)
C        0.000000000   0.000000000   0.250000000
C       -0.000000000  -0.000000000   0.750000000
C        0.333333000   0.666667000   0.250000000
C        0.666667000   0.333333000   0.750000000


     NEW-OLD atomic charge density approx. for the potential

     Check: negative core charge=   -0.000001
     extrapolated charge   15.98108, renormalised to   16.00000

     total cpu time spent up to now is       15.1 secs

     Self-consistent Calculation

     iteration #  1     ecut=    50.00 Ry     beta= 0.70
     Davidson diagonalization with overlap
     ethr =  1.00E-06,  avg # of iterations =  2.1

     total cpu time spent up to now is       16.4 secs

     total energy              =     -49.70778013 Ry
     Harris-Foulkes estimate   =     -49.73061749 Ry
     estimated scf accuracy    <       0.00001659 Ry

     iteration #  2     ecut=    50.00 Ry     beta= 0.70
     Davidson diagonalization with overlap
     ethr =  1.04E-07,  avg # of iterations =  2.4

     total cpu time spent up to now is       17.7 secs

     total energy              =     -49.70780687 Ry
     Harris-Foulkes estimate   =     -49.70781262 Ry
     estimated scf accuracy    <       0.00001352 Ry

     iteration #  3     ecut=    50.00 Ry     beta= 0.70
     Davidson diagonalization with overlap
     ethr =  8.45E-08,  avg # of iterations =  1.2

     total cpu time spent up to now is       18.7 secs

     total energy              =     -49.70780706 Ry
     Harris-Foulkes estimate   =     -49.70780758 Ry
     estimated scf accuracy    <       0.00000263 Ry

     iteration #  4     ecut=    50.00 Ry     beta= 0.70
     Davidson diagonalization with overlap
     ethr =  1.64E-08,  avg # of iterations =  1.0

     total cpu time spent up to now is       19.7 secs

     total energy              =     -49.70780624 Ry
     Harris-Foulkes estimate   =     -49.70780709 Ry
     estimated scf accuracy    <       0.00000152 Ry

     iteration #  5     ecut=    50.00 Ry     beta= 0.70
     Davidson diagonalization with overlap
     ethr =  9.52E-09,  avg # of iterations =  2.0

     total cpu time spent up to now is       20.7 secs

     End of self-consistent calculation

          k = 0.0000 0.0000 0.0000 (  1641 PWs)   bands (ev):

   -14.1164 -14.0325  -2.5867  -1.7384   2.3777   2.3778   2.3810   2.3811
     8.8264  13.0335  13.7722  13.7728

          k = 0.0000 0.0000-0.1581 (  1630 PWs)   bands (ev):

   -14.0749 -14.0749  -2.1888  -2.1888   2.3794   2.3794   2.3794   2.3794
    10.4866  10.4866  13.7784  13.7784

          k = 0.0000 0.1926 0.0000 (  1667 PWs)   bands (ev):

   -13.4613 -13.3815  -1.7954  -0.9747   0.0867   0.1007   1.2439   1.2518
     9.6680  13.7494  13.7570  13.8263

          k = 0.0000 0.1926-0.1581 (  1660 PWs)   bands (ev):

   -13.4218 -13.4218  -1.4097  -1.4097   0.0937   0.0937   1.2479   1.2479
    11.2843  11.2843  13.8069  13.8069

          k = 0.0000 0.3851 0.0000 (  1661 PWs)   bands (ev):

   -11.5290 -11.4606  -4.2203  -4.1878  -0.3724  -0.3619   0.4715   1.1840
    10.1948  10.5422  12.1621  13.1300

          k = 0.0000 0.3851-0.1581 (  1666 PWs)   bands (ev):

   -11.4951 -11.4951  -4.2041  -4.2041  -0.3672  -0.3672   0.8096   0.8096
    10.3451  10.3451  13.1160  13.1160

          k = 0.0000-0.5777 0.0000 (  1684 PWs)   bands (ev):

    -8.8525  -8.8236  -7.8189  -7.7963  -1.0089  -0.9977   2.9328   3.2070
     6.9856   7.3277  12.7901  12.9086

          k = 0.0000-0.5777-0.1581 (  1656 PWs)   bands (ev):

    -8.8377  -8.8377  -7.8083  -7.8083  -1.0033  -1.0033   3.0783   3.0783
     7.1141   7.1141  12.8489  12.8489

          k = 0.1668 0.2889 0.0000 (  1647 PWs)   bands (ev):

   -12.1675 -12.0953  -2.3467  -2.3344  -1.0005  -0.9915  -0.2553   0.5018
    11.3524  11.7363  11.9041  15.0765

          k = 0.1668 0.2889-0.1581 (  1654 PWs)   bands (ev):

   -12.1317 -12.1317  -2.3406  -2.3406  -0.9961  -0.9961   0.1023   0.1023
    11.8192  11.8192  12.8566  12.8566

          k = 0.1668 0.4814 0.0000 (  1651 PWs)   bands (ev):

    -9.6794  -9.6222  -5.9934  -5.9566  -2.6386  -2.6176   2.5152   3.0684
     7.8194   8.1224  14.6248  15.3826

          k = 0.1668 0.4814-0.1581 (  1658 PWs)   bands (ev):

    -9.6510  -9.6510  -5.9751  -5.9751  -2.6281  -2.6281   2.7830   2.7830
     7.9598   7.9598  15.3838  15.3838

          k = 0.3335 0.5777 0.0000 (  1653 PWs)   bands (ev):

    -7.1856  -7.1615  -7.1615  -7.1384  -5.1367  -5.1367   5.1946   5.4388
     5.4388   5.7035  16.2185  16.2185

          k = 0.3335 0.5777-0.1581 (  1674 PWs)   bands (ev):

    -7.1622  -7.1622  -7.1614  -7.1614  -5.1371  -5.1371   5.4397   5.4397
     5.4435   5.4435  15.7811  15.7811

     the Fermi energy is     5.4408 ev

!    total energy              =     -49.70780639 Ry
     Harris-Foulkes estimate   =     -49.70780641 Ry
     estimated scf accuracy    <       0.00000004 Ry

     The total energy is the sum of the following terms:

     one-electron contribution =     -23.65202940 Ry
     hartree contribution      =      18.99098001 Ry
     xc contribution           =     -18.55505008 Ry
     ewald contribution        =     -26.49075713 Ry
     smearing contrib. (-TS)   =      -0.00094979 Ry

     convergence has been achieved in   5 iterations

     Forces acting on atoms (cartesian axes, Ry/au):

     atom    1 type  1   force =    -0.00000000   -0.00000000    0.00000000
     atom    2 type  1   force =     0.00000000    0.00000000    0.00000000
     atom    3 type  1   force =     0.00000000   -0.00000000    0.00000000
     atom    4 type  1   force =    -0.00000000    0.00000000    0.00000000

     Total force =     0.000000     Total SCF correction =     0.000000


     Computing stress (Cartesian axis) and pressure

          total   stress  (Ry/bohr**3)                   (kbar)     P=    1.99
   0.00002026   0.00000000  -0.00000000          2.98      0.00     -0.00
   0.00000000   0.00002026  -0.00000000          0.00      2.98     -0.00
  -0.00000000  -0.00000000   0.00000007         -0.00     -0.00      0.01


     number of scf cycles    =   2
     number of bfgs steps    =   1

     enthalpy           old  =     -49.7078053588 Ry
     enthalpy           new  =     -49.7078063850 Ry

     CASE: enthalpy          _new < enthalpy          _old

     new trust radius        =       0.0009393686 bohr
     new conv_thr            =       0.0000000100 Ry

     new unit-cell volume =    277.43759 a.u.^3 (    41.11201 Ang^3 )
     density =      1.94048 g/cm^3

CELL_PARAMETERS (alat=  4.66250239)
   0.999645570   0.000000000   0.000000000
  -0.499822785   0.865718459   0.000000000
  -0.000000000  -0.000000000   3.162899401

ATOMIC_POSITIONS (crystal)
C       -0.000000000  -0.000000000   0.250000000
C        0.000000000  -0.000000000   0.750000000
C        0.333333000   0.666667000   0.250000000
C        0.666667000   0.333333000   0.750000000


     NEW-OLD atomic charge density approx. for the potential

     Check: negative core charge=   -0.000001
     extrapolated charge   16.00904, renormalised to   16.00000

     total cpu time spent up to now is       25.5 secs

     Self-consistent Calculation

     iteration #  1     ecut=    50.00 Ry     beta= 0.70
     Davidson diagonalization with overlap
     ethr =  1.00E-06,  avg # of iterations =  2.0

     Threshold (ethr) on eigenvalues was too large:
     Diagonalizing with lowered threshold

     Davidson diagonalization with overlap
     ethr =  1.99E-08,  avg # of iterations =  1.1

     total cpu time spent up to now is       27.6 secs

     total energy              =     -49.70780229 Ry
     Harris-Foulkes estimate   =     -49.69691422 Ry
     estimated scf accuracy    <       0.00000326 Ry

     iteration #  2     ecut=    50.00 Ry     beta= 0.70
     Davidson diagonalization with overlap
     ethr =  2.04E-08,  avg # of iterations =  2.4

     total cpu time spent up to now is       28.9 secs

     total energy              =     -49.70780812 Ry
     Harris-Foulkes estimate   =     -49.70780938 Ry
     estimated scf accuracy    <       0.00000304 Ry

     iteration #  3     ecut=    50.00 Ry     beta= 0.70
     Davidson diagonalization with overlap
     ethr =  1.90E-08,  avg # of iterations =  1.1

     total cpu time spent up to now is       29.9 secs

     total energy              =     -49.70780792 Ry
     Harris-Foulkes estimate   =     -49.70780827 Ry
     estimated scf accuracy    <       0.00000064 Ry

     iteration #  4     ecut=    50.00 Ry     beta= 0.70
     Davidson diagonalization with overlap
     ethr =  4.03E-09,  avg # of iterations =  2.0

     total cpu time spent up to now is       31.0 secs

     total energy              =     -49.70780798 Ry
     Harris-Foulkes estimate   =     -49.70780799 Ry
     estimated scf accuracy    <       0.00000003 Ry

     iteration #  5     ecut=    50.00 Ry     beta= 0.70
     Davidson diagonalization with overlap
     ethr =  1.65E-10,  avg # of iterations =  2.0

     total cpu time spent up to now is       32.1 secs

     End of self-consistent calculation

          k = 0.0000 0.0000 0.0000 (  1641 PWs)   bands (ev):

   -14.1165 -14.0326  -2.5876  -1.7390   2.3703   2.3703   2.3736   2.3737
     8.8236  13.0304  13.7596  13.7602

          k = 0.0000 0.0000-0.1581 (  1630 PWs)   bands (ev):

   -14.0749 -14.0749  -2.1896  -2.1896   2.3720   2.3720   2.3720   2.3720
    10.4838  10.4838  13.7658  13.7659

          k =-0.0000 0.1925 0.0000 (  1667 PWs)   bands (ev):

   -13.4617 -13.3818  -1.7968  -0.9759   0.0802   0.0942   1.2375   1.2454
     9.6647  13.7436  13.7455  13.8127

          k =-0.0000 0.1925-0.1581 (  1660 PWs)   bands (ev):

   -13.4222 -13.4222  -1.4111  -1.4111   0.0872   0.0872   1.2414   1.2414
    11.2810  11.2810  13.7934  13.7934

          k =-0.0000 0.3850 0.0000 (  1661 PWs)   bands (ev):

   -11.5305 -11.4620  -4.2248  -4.1922  -0.3776  -0.3670   0.4685   1.1812
    10.1848  10.5322  12.1571  13.1152

          k =-0.0000 0.3850-0.1581 (  1666 PWs)   bands (ev):

   -11.4965 -11.4965  -4.2086  -4.2086  -0.3723  -0.3723   0.8066   0.8066
    10.3352  10.3352  13.1024  13.1024

          k = 0.0000-0.5776-0.0000 (  1684 PWs)   bands (ev):

    -8.8564  -8.8276  -7.8204  -7.7978  -1.0136  -1.0024   2.9278   3.2021
     6.9788   7.3207  12.7750  12.8934

          k = 0.0000-0.5776-0.1581 (  1656 PWs)   bands (ev):

    -8.8416  -8.8416  -7.8097  -7.8097  -1.0080  -1.0080   3.0734   3.0734
     7.1072   7.1072  12.8337  12.8337

          k = 0.1667 0.2888 0.0000 (  1647 PWs)   bands (ev):

   -12.1686 -12.0964  -2.3526  -2.3402  -1.0051  -0.9961  -0.2578   0.4995
    11.3482  11.7246  11.8924  15.0714

          k = 0.1667 0.2888-0.1581 (  1654 PWs)   bands (ev):

   -12.1328 -12.1328  -2.3464  -2.3464  -1.0007  -1.0007   0.0999   0.0999
    11.8075  11.8075  12.8521  12.8521

          k = 0.1667 0.4813 0.0000 (  1651 PWs)   bands (ev):

    -9.6819  -9.6247  -5.9972  -5.9604  -2.6424  -2.6214   2.5107   3.0639
     7.8112   8.1142  14.6182  15.3667

          k = 0.1667 0.4813-0.1581 (  1658 PWs)   bands (ev):

    -9.6535  -9.6535  -5.9789  -5.9789  -2.6319  -2.6319   2.7785   2.7785
     7.9515   7.9515  15.3701  15.3701

          k = 0.3335 0.5776 0.0000 (  1653 PWs)   bands (ev):

    -7.1901  -7.1659  -7.1659  -7.1429  -5.1374  -5.1374   5.1879   5.4323
     5.4323   5.6970  16.2113  16.2113

          k = 0.3335 0.5776-0.1581 (  1674 PWs)   bands (ev):

    -7.1666  -7.1666  -7.1658  -7.1658  -5.1378  -5.1378   5.4331   5.4331
     5.4370   5.4370  15.7735  15.7735

     the Fermi energy is     5.4342 ev

!    total energy              =     -49.70780798 Ry
     Harris-Foulkes estimate   =     -49.70780798 Ry
     estimated scf accuracy    <          1.2E-09 Ry

     The total energy is the sum of the following terms:

     one-electron contribution =     -23.63666840 Ry
     hartree contribution      =      18.98050716 Ry
     xc contribution           =     -18.55265214 Ry
     ewald contribution        =     -26.49804484 Ry
     smearing contrib. (-TS)   =      -0.00094976 Ry

     convergence has been achieved in   5 iterations

     Forces acting on atoms (cartesian axes, Ry/au):

     atom    1 type  1   force =    -0.00000000   -0.00000000   -0.00000000
     atom    2 type  1   force =     0.00000000    0.00000000    0.00000000
     atom    3 type  1   force =     0.00000000   -0.00000000    0.00000000
     atom    4 type  1   force =    -0.00000000    0.00000000   -0.00000000

     Total force =     0.000000     Total SCF correction =     0.000000


     Computing stress (Cartesian axis) and pressure

          total   stress  (Ry/bohr**3)                   (kbar)     P=    0.18
  -0.00000009   0.00000000   0.00000000         -0.01      0.00      0.00
   0.00000000  -0.00000009  -0.00000000          0.00     -0.01     -0.00
   0.00000000  -0.00000000   0.00000387          0.00     -0.00      0.57


     number of scf cycles    =   3
     number of bfgs steps    =   2

     enthalpy           old  =     -49.7078063850 Ry
     enthalpy           new  =     -49.7078079790 Ry

     CASE: enthalpy          _new < enthalpy          _old

     new trust radius        =       0.0003226339 bohr
     new conv_thr            =       0.0000000100 Ry

     new unit-cell volume =    277.46883 a.u.^3 (    41.11664 Ang^3 )
     density =      1.94026 g/cm^3

CELL_PARAMETERS (alat=  4.66250239)
   0.999653442   0.000000000   0.000000000
  -0.499826721   0.865725276   0.000000000
   0.000000000  -0.000000000   3.163205726

ATOMIC_POSITIONS (crystal)
C       -0.000000000  -0.000000000   0.250000000
C        0.000000000   0.000000000   0.750000000
C        0.333333000   0.666667000   0.250000000
C        0.666667000   0.333333000   0.750000000


     NEW-OLD atomic charge density approx. for the potential

     Check: negative core charge=   -0.000001
     extrapolated charge   16.00180, renormalised to   16.00000

     total cpu time spent up to now is       36.9 secs

     Self-consistent Calculation

     iteration #  1     ecut=    50.00 Ry     beta= 0.70
     Davidson diagonalization with overlap
     ethr =  1.00E-06,  avg # of iterations =  2.0

     Threshold (ethr) on eigenvalues was too large:
     Diagonalizing with lowered threshold

     Davidson diagonalization with overlap
     ethr =  6.05E-10,  avg # of iterations =  1.0

     total cpu time spent up to now is       39.2 secs

     total energy              =     -49.70780787 Ry
     Harris-Foulkes estimate   =     -49.70563695 Ry
     estimated scf accuracy    <       0.00000010 Ry

     iteration #  2     ecut=    50.00 Ry     beta= 0.70
     Davidson diagonalization with overlap
     ethr =  6.16E-10,  avg # of iterations =  2.6

     total cpu time spent up to now is       40.5 secs

     total energy              =     -49.70780808 Ry
     Harris-Foulkes estimate   =     -49.70780812 Ry
     estimated scf accuracy    <       0.00000012 Ry

     iteration #  3     ecut=    50.00 Ry     beta= 0.70
     Davidson diagonalization with overlap
     ethr =  6.16E-10,  avg # of iterations =  1.2

     total cpu time spent up to now is       41.5 secs

     total energy              =     -49.70780807 Ry
     Harris-Foulkes estimate   =     -49.70780808 Ry
     estimated scf accuracy    <       0.00000003 Ry

     iteration #  4     ecut=    50.00 Ry     beta= 0.70
     Davidson diagonalization with overlap
     ethr =  1.78E-10,  avg # of iterations =  1.0

     total cpu time spent up to now is       42.5 secs

     End of self-consistent calculation

          k = 0.0000 0.0000 0.0000 (  1641 PWs)   bands (ev):

   -14.1176 -14.0337  -2.5884  -1.7403   2.3689   2.3690   2.3722   2.3723
     8.8223  13.0279  13.7581  13.7587

          k = 0.0000 0.0000-0.1581 (  1630 PWs)   bands (ev):

   -14.0761 -14.0761  -2.1907  -2.1907   2.3706   2.3706   2.3706   2.3706
    10.4819  10.4819  13.7643  13.7644

          k =-0.0000 0.1925 0.0000 (  1667 PWs)   bands (ev):

   -13.4628 -13.3830  -1.7976  -0.9772   0.0788   0.0929   1.2361   1.2441
     9.6633  13.7421  13.7430  13.8112

          k =-0.0000 0.1925-0.1581 (  1660 PWs)   bands (ev):

   -13.4233 -13.4233  -1.4121  -1.4121   0.0859   0.0859   1.2401   1.2401
    11.2792  11.2792  13.7919  13.7919

          k =-0.0000 0.3850 0.0000 (  1661 PWs)   bands (ev):

   -11.5316 -11.4632  -4.2261  -4.1935  -0.3789  -0.3683   0.4676   1.1798
    10.1836  10.5307  12.1558  13.1138

          k =-0.0000 0.3850-0.1581 (  1666 PWs)   bands (ev):

   -11.4977 -11.4977  -4.2099  -4.2099  -0.3736  -0.3736   0.8055   0.8055
    10.3338  10.3338  13.1008  13.1008

          k = 0.0000-0.5776-0.0000 (  1684 PWs)   bands (ev):

    -8.8577  -8.8288  -7.8216  -7.7990  -1.0149  -1.0037   2.9267   3.2009
     6.9776   7.3194  12.7735  12.8918

          k = 0.0000-0.5776-0.1581 (  1656 PWs)   bands (ev):

    -8.8429  -8.8429  -7.8109  -7.8109  -1.0093  -1.0093   3.0723   3.0723
     7.1059   7.1059  12.8322  12.8322

          k = 0.1667 0.2888 0.0000 (  1647 PWs)   bands (ev):

   -12.1697 -12.0976  -2.3539  -2.3415  -1.0064  -0.9974  -0.2587   0.4981
    11.3468  11.7233  11.8909  15.0691

          k = 0.1667 0.2888-0.1581 (  1654 PWs)   bands (ev):

   -12.1339 -12.1339  -2.3477  -2.3477  -1.0020  -1.0020   0.0988   0.0988
    11.8061  11.8061  12.8503  12.8503

          k = 0.1667 0.4813 0.0000 (  1651 PWs)   bands (ev):

    -9.6831  -9.6260  -5.9984  -5.9616  -2.6436  -2.6226   2.5097   3.0626
     7.8100   8.1128  14.6169  15.3652

          k = 0.1667 0.4813-0.1581 (  1658 PWs)   bands (ev):

    -9.6547  -9.6547  -5.9801  -5.9801  -2.6332  -2.6332   2.7773   2.7773
     7.9503   7.9503  15.3686  15.3686

          k = 0.3334 0.5776 0.0000 (  1653 PWs)   bands (ev):

    -7.1913  -7.1672  -7.1672  -7.1442  -5.1386  -5.1386   5.1868   5.4310
     5.4310   5.6956  16.2101  16.2101

          k = 0.3334 0.5776-0.1581 (  1674 PWs)   bands (ev):

    -7.1679  -7.1679  -7.1671  -7.1671  -5.1390  -5.1390   5.4319   5.4319
     5.4357   5.4357  15.7724  15.7724

     the Fermi energy is     5.4330 ev

!    total energy              =     -49.70780807 Ry
     Harris-Foulkes estimate   =     -49.70780807 Ry
     estimated scf accuracy    <          7.4E-09 Ry

     The total energy is the sum of the following terms:

     one-electron contribution =     -23.64542270 Ry
     hartree contribution      =      18.98433950 Ry
     xc contribution           =     -18.55261357 Ry
     ewald contribution        =     -26.49316148 Ry
     smearing contrib. (-TS)   =      -0.00094981 Ry

     convergence has been achieved in   4 iterations

     Forces acting on atoms (cartesian axes, Ry/au):

     atom    1 type  1   force =    -0.00000000    0.00000000    0.00000000
     atom    2 type  1   force =     0.00000000    0.00000000   -0.00000000
     atom    3 type  1   force =    -0.00000000   -0.00000000    0.00000000
     atom    4 type  1   force =     0.00000000   -0.00000000   -0.00000000

     Total force =     0.000000     Total SCF correction =     0.000000


     Computing stress (Cartesian axis) and pressure

          total   stress  (Ry/bohr**3)                   (kbar)     P=    0.17
  -0.00000064  -0.00000000  -0.00000000         -0.09     -0.00     -0.00
  -0.00000000  -0.00000064   0.00000000         -0.00     -0.09      0.00
  -0.00000000  -0.00000000   0.00000478         -0.00     -0.00      0.70


     number of scf cycles    =   4
     number of bfgs steps    =   3

     enthalpy           old  =     -49.7078079790 Ry
     enthalpy           new  =     -49.7078080664 Ry

     CASE: enthalpy          _new < enthalpy          _old


     WARNING: bfgs curvature condition failed, Theta= 0.660
     uphill step: resetting bfgs history

     new trust radius        =       0.0003984201 bohr
     new conv_thr            =       0.0000000100 Ry

     new unit-cell volume =    277.49316 a.u.^3 (    41.12024 Ang^3 )
     density =      1.94009 g/cm^3

CELL_PARAMETERS (alat=  4.66250239)
   0.999637488   0.000000000   0.000000000
  -0.499818744   0.865711459   0.000000000
  -0.000000000  -0.000000000   3.163584022

ATOMIC_POSITIONS (crystal)
C       -0.000000000  -0.000000000   0.250000000
C        0.000000000   0.000000000   0.750000000
C        0.333333000   0.666667000   0.250000000
C        0.666667000   0.333333000   0.750000000


     NEW-OLD atomic charge density approx. for the potential

     Check: negative core charge=   -0.000001
     extrapolated charge   16.00140, renormalised to   16.00000

     total cpu time spent up to now is       47.2 secs

     Self-consistent Calculation

     iteration #  1     ecut=    50.00 Ry     beta= 0.70
     Davidson diagonalization with overlap
     ethr =  1.00E-06,  avg # of iterations =  2.0

     Threshold (ethr) on eigenvalues was too large:
     Diagonalizing with lowered threshold

     Davidson diagonalization with overlap
     ethr =  3.77E-10,  avg # of iterations =  1.0

     total cpu time spent up to now is       49.3 secs

     total energy              =     -49.70780806 Ry
     Harris-Foulkes estimate   =     -49.70611676 Ry
     estimated scf accuracy    <       0.00000006 Ry

     iteration #  2     ecut=    50.00 Ry     beta= 0.70
     Davidson diagonalization with overlap
     ethr =  3.79E-10,  avg # of iterations =  2.5

     total cpu time spent up to now is       50.6 secs

     total energy              =     -49.70780818 Ry
     Harris-Foulkes estimate   =     -49.70780821 Ry
     estimated scf accuracy    <       0.00000007 Ry

     iteration #  3     ecut=    50.00 Ry     beta= 0.70
     Davidson diagonalization with overlap
     ethr =  3.79E-10,  avg # of iterations =  1.3

     total cpu time spent up to now is       51.6 secs

     total energy              =     -49.70780818 Ry
     Harris-Foulkes estimate   =     -49.70780819 Ry
     estimated scf accuracy    <       0.00000002 Ry

     iteration #  4     ecut=    50.00 Ry     beta= 0.70
     Davidson diagonalization with overlap
     ethr =  1.09E-10,  avg # of iterations =  1.0

     total cpu time spent up to now is       52.6 secs

     End of self-consistent calculation

          k = 0.0000 0.0000 0.0000 (  1641 PWs)   bands (ev):

   -14.1187 -14.0349  -2.5892  -1.7418   2.3682   2.3682   2.3715   2.3716
     8.8208  13.0251  13.7577  13.7583

          k = 0.0000 0.0000-0.1580 (  1630 PWs)   bands (ev):

   -14.0772 -14.0772  -2.1918  -2.1918   2.3698   2.3698   2.3699   2.3699
    10.4798  10.4798  13.7639  13.7639

          k =-0.0000 0.1925 0.0000 (  1667 PWs)   bands (ev):

   -13.4639 -13.3842  -1.7984  -0.9787   0.0780   0.0921   1.2353   1.2433
     9.6619  13.7404  13.7417  13.8108

          k =-0.0000 0.1925-0.1580 (  1660 PWs)   bands (ev):

   -13.4245 -13.4245  -1.4132  -1.4132   0.0851   0.0851   1.2393   1.2393
    11.2772  11.2772  13.7915  13.7915

          k =-0.0000 0.3850 0.0000 (  1661 PWs)   bands (ev):

   -11.5326 -11.4643  -4.2270  -4.1945  -0.3797  -0.3692   0.4668   1.1785
    10.1832  10.5299  12.1545  13.1135

          k =-0.0000 0.3850-0.1580 (  1666 PWs)   bands (ev):

   -11.4988 -11.4988  -4.2108  -4.2108  -0.3745  -0.3745   0.8045   0.8045
    10.3332  10.3332  13.1004  13.1004

          k = 0.0000-0.5776-0.0000 (  1684 PWs)   bands (ev):

    -8.8586  -8.8298  -7.8227  -7.8001  -1.0158  -1.0046   2.9260   3.1999
     6.9769   7.3185  12.7732  12.8915

          k = 0.0000-0.5776-0.1580 (  1656 PWs)   bands (ev):

    -8.8438  -8.8438  -7.8120  -7.8120  -1.0102  -1.0102   3.0714   3.0714
     7.1052   7.1052  12.8319  12.8319

          k = 0.1667 0.2888 0.0000 (  1647 PWs)   bands (ev):

   -12.1708 -12.0987  -2.3548  -2.3424  -1.0073  -0.9983  -0.2594   0.4968
    11.3455  11.7228  11.8904  15.0667

          k = 0.1667 0.2888-0.1580 (  1654 PWs)   bands (ev):

   -12.1350 -12.1350  -2.3486  -2.3486  -1.0029  -1.0029   0.0978   0.0978
    11.8056  11.8056  12.8485  12.8485

          k = 0.1667 0.4813 0.0000 (  1651 PWs)   bands (ev):

    -9.6841  -9.6270  -5.9993  -5.9626  -2.6446  -2.6236   2.5090   3.0615
     7.8094   8.1120  14.6158  15.3650

          k = 0.1667 0.4813-0.1580 (  1658 PWs)   bands (ev):

    -9.6557  -9.6557  -5.9811  -5.9811  -2.6342  -2.6342   2.7764   2.7764
     7.9496   7.9496  15.3681  15.3681

          k = 0.3335 0.5776 0.0000 (  1653 PWs)   bands (ev):

    -7.1922  -7.1681  -7.1681  -7.1451  -5.1397  -5.1397   5.1862   5.4302
     5.4302   5.6946  16.2092  16.2092

          k = 0.3335 0.5776-0.1580 (  1674 PWs)   bands (ev):

    -7.1688  -7.1688  -7.1680  -7.1680  -5.1401  -5.1401   5.4311   5.4311
     5.4349   5.4349  15.7718  15.7718

     the Fermi energy is     5.4322 ev

!    total energy              =     -49.70780818 Ry
     Harris-Foulkes estimate   =     -49.70780818 Ry
     estimated scf accuracy    <          5.8E-09 Ry

     The total energy is the sum of the following terms:

     one-electron contribution =     -23.65751494 Ry
     hartree contribution      =      18.98986484 Ry
     xc contribution           =     -18.55274664 Ry
     ewald contribution        =     -26.48646156 Ry
     smearing contrib. (-TS)   =      -0.00094987 Ry

     convergence has been achieved in   4 iterations

     Forces acting on atoms (cartesian axes, Ry/au):

     atom    1 type  1   force =    -0.00000000    0.00000000   -0.00000000
     atom    2 type  1   force =     0.00000000    0.00000000    0.00000000
     atom    3 type  1   force =     0.00000000   -0.00000000    0.00000000
     atom    4 type  1   force =    -0.00000000    0.00000000   -0.00000000

     Total force =     0.000000     Total SCF correction =     0.000000


     Computing stress (Cartesian axis) and pressure

          total   stress  (Ry/bohr**3)                   (kbar)     P=    0.27
   0.00000052  -0.00000000  -0.00000000          0.08     -0.00     -0.00
  -0.00000000   0.00000052   0.00000000         -0.00      0.08      0.00
  -0.00000000   0.00000000   0.00000456         -0.00      0.00      0.67


     number of scf cycles    =   5
     number of bfgs steps    =   4

     enthalpy           old  =     -49.7078080664 Ry
     enthalpy           new  =     -49.7078081775 Ry

     CASE: enthalpy          _new < enthalpy          _old


     WARNING: bfgs curvature condition failed, Theta= 0.897
     new trust radius        =       0.0005975848 bohr
     new conv_thr            =       0.0000000100 Ry

     new unit-cell volume =    277.54150 a.u.^3 (    41.12741 Ang^3 )
     density =      1.93975 g/cm^3

CELL_PARAMETERS (alat=  4.66250239)
   0.999634916   0.000000000   0.000000000
  -0.499817458   0.865709232   0.000000000
  -0.000000000   0.000000000   3.164151465

ATOMIC_POSITIONS (crystal)
C       -0.000000000  -0.000000000   0.250000000
C        0.000000000   0.000000000   0.750000000
C        0.333333000   0.666667000   0.250000000
C        0.666667000   0.333333000   0.750000000


     NEW-OLD atomic charge density approx. for the potential

     Check: negative core charge=   -0.000001
     extrapolated charge   16.00279, renormalised to   16.00000

     total cpu time spent up to now is       57.4 secs

     Self-consistent Calculation

     iteration #  1     ecut=    50.00 Ry     beta= 0.70
     Davidson diagonalization with overlap
     ethr =  1.00E-06,  avg # of iterations =  2.0

     Threshold (ethr) on eigenvalues was too large:
     Diagonalizing with lowered threshold

     Davidson diagonalization with overlap
     ethr =  1.43E-09,  avg # of iterations =  1.0

     total cpu time spent up to now is       59.5 secs

     total energy              =     -49.70780786 Ry
     Harris-Foulkes estimate   =     -49.70444471 Ry
     estimated scf accuracy    <       0.00000023 Ry

     iteration #  2     ecut=    50.00 Ry     beta= 0.70
     Davidson diagonalization with overlap
     ethr =  1.44E-09,  avg # of iterations =  2.6

     total cpu time spent up to now is       60.8 secs

     total energy              =     -49.70780836 Ry
     Harris-Foulkes estimate   =     -49.70780847 Ry
     estimated scf accuracy    <       0.00000029 Ry

     iteration #  3     ecut=    50.00 Ry     beta= 0.70
     Davidson diagonalization with overlap
     ethr =  1.44E-09,  avg # of iterations =  1.2

     total cpu time spent up to now is       62.0 secs

     total energy              =     -49.70780834 Ry
     Harris-Foulkes estimate   =     -49.70780837 Ry
     estimated scf accuracy    <       0.00000007 Ry

     iteration #  4     ecut=    50.00 Ry     beta= 0.70
     Davidson diagonalization with overlap
     ethr =  4.34E-10,  avg # of iterations =  1.2

     total cpu time spent up to now is       63.1 secs

     total energy              =     -49.70780834 Ry
     Harris-Foulkes estimate   =     -49.70780835 Ry
     estimated scf accuracy    <       0.00000002 Ry

     iteration #  5     ecut=    50.00 Ry     beta= 0.70
     Davidson diagonalization with overlap
     ethr =  9.84E-11,  avg # of iterations =  2.0

     total cpu time spent up to now is       64.3 secs

     End of self-consistent calculation

          k = 0.0000 0.0000 0.0000 (  1641 PWs)   bands (ev):

   -14.1201 -14.0364  -2.5903  -1.7438   2.3669   2.3669   2.3702   2.3703
     8.8183  13.0206  13.7564  13.7570

          k = 0.0000 0.0000-0.1580 (  1630 PWs)   bands (ev):

   -14.0786 -14.0786  -2.1933  -2.1933   2.3685   2.3685   2.3686   2.3686
    10.4765  10.4765  13.7626  13.7626

          k =-0.0000 0.1925-0.0000 (  1667 PWs)   bands (ev):

   -13.4653 -13.3857  -1.7996  -0.9807   0.0767   0.0907   1.2340   1.2420
     9.6595  13.7361  13.7404  13.8094

          k =-0.0000 0.1925-0.1580 (  1660 PWs)   bands (ev):

   -13.4259 -13.4259  -1.4147  -1.4147   0.0838   0.0838   1.2380   1.2380
    11.2739  11.2739  13.7901  13.7901

          k =-0.0000 0.3850-0.0000 (  1661 PWs)   bands (ev):

   -11.5340 -11.4658  -4.2283  -4.1959  -0.3811  -0.3705   0.4657   1.1766
    10.1819  10.5283  12.1523  13.1122

          k =-0.0000 0.3850-0.1580 (  1666 PWs)   bands (ev):

   -11.5002 -11.5002  -4.2121  -4.2121  -0.3758  -0.3758   0.8030   0.8030
    10.3318  10.3318  13.0989  13.0989

          k = 0.0000-0.5776 0.0000 (  1684 PWs)   bands (ev):

    -8.8599  -8.8312  -7.8240  -7.8015  -1.0171  -1.0059   2.9247   3.1983
     6.9755   7.3168  12.7720  12.8901

          k = 0.0000-0.5776-0.1580 (  1656 PWs)   bands (ev):

    -8.8452  -8.8452  -7.8134  -7.8134  -1.0115  -1.0115   3.0699   3.0699
     7.1037   7.1037  12.8306  12.8306

          k = 0.1667 0.2888-0.0000 (  1647 PWs)   bands (ev):

   -12.1721 -12.1002  -2.3561  -2.3437  -1.0086  -0.9996  -0.2606   0.4949
    11.3431  11.7216  11.8889  15.0628

          k = 0.1667 0.2888-0.1580 (  1654 PWs)   bands (ev):

   -12.1365 -12.1365  -2.3499  -2.3499  -1.0042  -1.0042   0.0963   0.0963
    11.8042  11.8042  12.8454  12.8454

          k = 0.1667 0.4813-0.0000 (  1651 PWs)   bands (ev):

    -9.6854  -9.6285  -6.0007  -5.9640  -2.6459  -2.6250   2.5078   3.0597
     7.8081   8.1104  14.6137  15.3638

          k = 0.1667 0.4813-0.1580 (  1658 PWs)   bands (ev):

    -9.6571  -9.6571  -5.9824  -5.9824  -2.6355  -2.6355   2.7749   2.7749
     7.9481   7.9481  15.3666  15.3666

          k = 0.3335 0.5776-0.0000 (  1653 PWs)   bands (ev):

    -7.1935  -7.1695  -7.1695  -7.1465  -5.1411  -5.1411   5.1851   5.4288
     5.4288   5.6928  16.2073  16.2073

          k = 0.3335 0.5776-0.1580 (  1674 PWs)   bands (ev):

    -7.1702  -7.1702  -7.1694  -7.1694  -5.1415  -5.1415   5.4297   5.4297
     5.4335   5.4335  15.7704  15.7704

     the Fermi energy is     5.4307 ev

!    total energy              =     -49.70780834 Ry
     Harris-Foulkes estimate   =     -49.70780834 Ry
     estimated scf accuracy    <          1.4E-11 Ry

     The total energy is the sum of the following terms:

     one-electron contribution =     -23.67432173 Ry
     hartree contribution      =      18.99715015 Ry
     xc contribution           =     -18.55271857 Ry
     ewald contribution        =     -26.47696824 Ry
     smearing contrib. (-TS)   =      -0.00094996 Ry

     convergence has been achieved in   5 iterations

     Forces acting on atoms (cartesian axes, Ry/au):

     atom    1 type  1   force =     0.00000000    0.00000000    0.00000000
     atom    2 type  1   force =    -0.00000000    0.00000000   -0.00000000
     atom    3 type  1   force =     0.00000000    0.00000000   -0.00000000
     atom    4 type  1   force =    -0.00000000   -0.00000000   -0.00000000

     Total force =     0.000000     Total SCF correction =     0.000000


     Computing stress (Cartesian axis) and pressure

          total   stress  (Ry/bohr**3)                   (kbar)     P=    0.23
   0.00000073  -0.00000000  -0.00000000          0.11     -0.00     -0.00
  -0.00000000   0.00000073  -0.00000000         -0.00      0.11     -0.00
  -0.00000000  -0.00000000   0.00000324         -0.00     -0.00      0.48


     bfgs converged in   6 scf cycles and   5 bfgs steps
     (criteria: energy <  1.0E-04 Ry, force <  1.0E-03Ry/Bohr, cell <  5.0E-01kbar)

     End of BFGS Geometry Optimization

     Final enthalpy           =     -49.7078083407 Ry
Begin final coordinates
     new unit-cell volume =    277.54150 a.u.^3 (    41.12741 Ang^3 )
     density =      1.93975 g/cm^3

CELL_PARAMETERS (alat=  4.66250239)
   0.999634916   0.000000000   0.000000000
  -0.499817458   0.865709232   0.000000000
  -0.000000000   0.000000000   3.164151465

ATOMIC_POSITIONS (crystal)
C       -0.000000000  -0.000000000   0.250000000
C        0.000000000   0.000000000   0.750000000
C        0.333333000   0.666667000   0.250000000
C        0.666667000   0.333333000   0.750000000
End final coordinates



     A final scf calculation at the relaxed structure.
     The G-vectors are recalculated for the final unit cell
     Results may differ from those at the preceding step.

     G-vector sticks info
     --------------------
     sticks:   dense  smooth     PW     G-vecs:    dense   smooth      PW
     Sum         673     301     91                44739    13303    2371



     bravais-lattice index     =            4
     lattice parameter (alat)  =       4.6625  a.u.
     unit-cell volume          =     277.5415 (a.u.)^3
     number of atoms/cell      =            4
     number of atomic types    =            1
     number of electrons       =        16.00
     number of Kohn-Sham states=           12
     kinetic-energy cutoff     =      50.0000  Ry
     charge density cutoff     =     450.0000  Ry
     convergence threshold     =      1.0E-08
     mixing beta               =       0.7000
     number of iterations used =            8  plain     mixing
     Exchange-correlation      = PBE ( 1  4  3  4 0 0)

     celldm(1)=   4.662502  celldm(2)=   0.000000  celldm(3)=   3.162608
     celldm(4)=   0.000000  celldm(5)=   0.000000  celldm(6)=   0.000000

     crystal axes: (cart. coord. in units of alat)
               a(1) = (   0.999635   0.000000   0.000000 )  
               a(2) = (  -0.499817   0.865709   0.000000 )  
               a(3) = (  -0.000000   0.000000   3.164151 )  

     reciprocal axes: (cart. coord. in units 2 pi/alat)
               b(1) = (  1.000365  0.577561  0.000000 )  
               b(2) = ( -0.000000  1.155122 -0.000000 )  
               b(3) = ( -0.000000 -0.000000  0.316040 )  


     PseudoPot. # 1 for C  read from file:
     .\C.pbe-n-rrkjus_psl.1.0.0.UPF
     MD5 check sum: 1fdd950c42eb37d8afe3dd2f8d12311e
     Pseudo is Ultrasoft + core correction, Zval =  4.0
     Generated using "atomic" code by A. Dal Corso v.6.3MaX
     Using radial grid of 1073 points,  4 beta functions with: 
                l(1) =   0
                l(2) =   0
                l(3) =   1
                l(4) =   1
     Q(r) pseudized with 0 coefficients 


     atomic species   valence    mass     pseudopotential
        C              4.00    12.01070     C ( 1.00)

     24 Sym. Ops., with inversion, found (12 have fractional translation)



   Cartesian axes

     site n.     atom                  positions (alat units)
         1           C   tau(   1) = (  -0.0000000  -0.0000000   0.7910379  )
         2           C   tau(   2) = (   0.0000000   0.0000000   2.3731136  )
         3           C   tau(   3) = (  -0.0000005   0.5771398   0.7910379  )
         4           C   tau(   4) = (   0.4998180   0.2885695   2.3731136  )

     number of k points=    14  gaussian smearing, width (Ry)=  0.0100
                       cart. coord. in units 2pi/alat
        k(    1) = (   0.0000000   0.0000000   0.0000000), wk =   0.0277778
        k(    2) = (   0.0000000   0.0000000  -0.1580202), wk =   0.0277778
        k(    3) = (  -0.0000000   0.1925204  -0.0000000), wk =   0.1666667
        k(    4) = (  -0.0000000   0.1925204  -0.1580202), wk =   0.1666667
        k(    5) = (  -0.0000000   0.3850408  -0.0000000), wk =   0.1666667
        k(    6) = (  -0.0000000   0.3850408  -0.1580202), wk =   0.1666667
        k(    7) = (   0.0000000  -0.5775611   0.0000000), wk =   0.0833333
        k(    8) = (   0.0000000  -0.5775611  -0.1580202), wk =   0.0833333
        k(    9) = (   0.1667275   0.2887806  -0.0000000), wk =   0.1666667
        k(   10) = (   0.1667275   0.2887806  -0.1580202), wk =   0.1666667
        k(   11) = (   0.1667275   0.4813009  -0.0000000), wk =   0.3333333
        k(   12) = (   0.1667275   0.4813009  -0.1580202), wk =   0.3333333
        k(   13) = (   0.3334551   0.5775611  -0.0000000), wk =   0.0555556
        k(   14) = (   0.3334551   0.5775611  -0.1580202), wk =   0.0555556

     Dense  grid:    44739 G-vectors     FFT dimensions: (  32,  32, 100)

     Smooth grid:    13303 G-vectors     FFT dimensions: (  24,  24,  72)

     Estimated max dynamical RAM per process >      68.34 MB

     Check: negative core charge=   -0.000001

     Initial potential from superposition of free atoms

     starting charge   15.99983, renormalised to   16.00000
     Starting wfcs are   16 randomized atomic wfcs

     total cpu time spent up to now is       68.0 secs

     Self-consistent Calculation

     iteration #  1     ecut=    50.00 Ry     beta= 0.70
     Davidson diagonalization with overlap
     c_bands:  2 eigenvalues not converged
     ethr =  1.00E-06,  avg # of iterations = 11.4

     total cpu time spent up to now is       71.0 secs

     total energy              =     -49.64655940 Ry
     Harris-Foulkes estimate   =     -49.88059719 Ry
     estimated scf accuracy    <       0.39678150 Ry

     iteration #  2     ecut=    50.00 Ry     beta= 0.70
     Davidson diagonalization with overlap
     ethr =  2.48E-03,  avg # of iterations =  2.1

     total cpu time spent up to now is       72.3 secs

     total energy              =     -49.70729931 Ry
     Harris-Foulkes estimate   =     -49.70774477 Ry
     estimated scf accuracy    <       0.00495708 Ry

     iteration #  3     ecut=    50.00 Ry     beta= 0.70
     Davidson diagonalization with overlap
     ethr =  3.10E-05,  avg # of iterations =  3.9

     total cpu time spent up to now is       73.6 secs

     total energy              =     -49.70779578 Ry
     Harris-Foulkes estimate   =     -49.70775069 Ry
     estimated scf accuracy    <       0.00032970 Ry

     iteration #  4     ecut=    50.00 Ry     beta= 0.70
     Davidson diagonalization with overlap
     ethr =  2.06E-06,  avg # of iterations =  1.5

     total cpu time spent up to now is       74.7 secs

     total energy              =     -49.70780766 Ry
     Harris-Foulkes estimate   =     -49.70780669 Ry
     estimated scf accuracy    <       0.00000084 Ry

     iteration #  5     ecut=    50.00 Ry     beta= 0.70
     Davidson diagonalization with overlap
     ethr =  5.25E-09,  avg # of iterations =  2.7

     total cpu time spent up to now is       76.0 secs

     total energy              =     -49.70780829 Ry
     Harris-Foulkes estimate   =     -49.70780826 Ry
     estimated scf accuracy    <       0.00000007 Ry

     iteration #  6     ecut=    50.00 Ry     beta= 0.70
     Davidson diagonalization with overlap
     ethr =  4.57E-10,  avg # of iterations =  2.1

     total cpu time spent up to now is       77.2 secs

     total energy              =     -49.70780830 Ry
     Harris-Foulkes estimate   =     -49.70780832 Ry
     estimated scf accuracy    <       0.00000004 Ry

     iteration #  7     ecut=    50.00 Ry     beta= 0.70
     Davidson diagonalization with overlap
     ethr =  2.39E-10,  avg # of iterations =  1.1

     total cpu time spent up to now is       78.2 secs

     End of self-consistent calculation

          k = 0.0000 0.0000 0.0000 (  1641 PWs)   bands (ev):

   -14.1199 -14.0363  -2.5903  -1.7437   2.3670   2.3671   2.3704   2.3704
     8.8183  13.0206  13.7566  13.7574

          k = 0.0000 0.0000-0.1580 (  1630 PWs)   bands (ev):

   -14.0785 -14.0785  -2.1932  -2.1932   2.3687   2.3687   2.3688   2.3688
    10.4765  10.4765  13.7627  13.7628

          k =-0.0000 0.1925-0.0000 (  1667 PWs)   bands (ev):

   -13.4652 -13.3856  -1.7995  -0.9806   0.0769   0.0909   1.2342   1.2421
     9.6595  13.7361  13.7405  13.8096

          k =-0.0000 0.1925-0.1580 (  1660 PWs)   bands (ev):

   -13.4258 -13.4258  -1.4146  -1.4146   0.0839   0.0839   1.2382   1.2382
    11.2739  11.2739  13.7903  13.7903

          k =-0.0000 0.3850-0.0000 (  1657 PWs)   bands (ev):

   -11.5339 -11.4656  -4.2282  -4.1957  -0.3809  -0.3704   0.4658   1.1767
    10.1820  10.5284  12.1523  13.1123

          k =-0.0000 0.3850-0.1580 (  1666 PWs)   bands (ev):

   -11.5001 -11.5001  -4.2120  -4.2120  -0.3756  -0.3756   0.8031   0.8031
    10.3319  10.3319  13.0990  13.0990

          k = 0.0000-0.5776 0.0000 (  1684 PWs)   bands (ev):

    -8.8598  -8.8310  -7.8239  -7.8014  -1.0169  -1.0058   2.9248   3.1984
     6.9756   7.3169  12.7721  12.8902

          k = 0.0000-0.5776-0.1580 (  1660 PWs)   bands (ev):

    -8.8451  -8.8451  -7.8133  -7.8133  -1.0113  -1.0113   3.0700   3.0700
     7.1038   7.1038  12.8307  12.8307

          k = 0.1667 0.2888-0.0000 (  1647 PWs)   bands (ev):

   -12.1720 -12.1001  -2.3559  -2.3436  -1.0085  -0.9995  -0.2605   0.4950
    11.3431  11.7217  11.8890  15.3942

          k = 0.1667 0.2888-0.1580 (  1654 PWs)   bands (ev):

   -12.1363 -12.1363  -2.3497  -2.3497  -1.0041  -1.0041   0.0964   0.0964
    11.8044  11.8044  12.8454  12.8454

          k = 0.1667 0.4813-0.0000 (  1651 PWs)   bands (ev):

    -9.6853  -9.6283  -6.0005  -5.9639  -2.6458  -2.6248   2.5079   3.0598
     7.8082   8.1105  14.6137  15.3640

          k = 0.1667 0.4813-0.1580 (  1658 PWs)   bands (ev):

    -9.6570  -9.6570  -5.9823  -5.9823  -2.6354  -2.6354   2.7750   2.7750
     7.9483   7.9483  15.3667  15.3667

          k = 0.3335 0.5776-0.0000 (  1653 PWs)   bands (ev):

    -7.1934  -7.1693  -7.1693  -7.1463  -5.1410  -5.1410   5.1852   5.4289
     5.4289   5.6930  16.2073  16.2073

          k = 0.3335 0.5776-0.1580 (  1674 PWs)   bands (ev):

    -7.1700  -7.1700  -7.1692  -7.1692  -5.1413  -5.1413   5.4298   5.4298
     5.4336   5.4336  15.7704  15.7704

     the Fermi energy is     5.4308 ev

!    total energy              =     -49.70780831 Ry
     Harris-Foulkes estimate   =     -49.70780831 Ry
     estimated scf accuracy    <          1.3E-09 Ry

     The total energy is the sum of the following terms:

     one-electron contribution =     -23.67425665 Ry
     hartree contribution      =      18.99706535 Ry
     xc contribution           =     -18.55269881 Ry
     ewald contribution        =     -26.47696824 Ry
     smearing contrib. (-TS)   =      -0.00094996 Ry

     convergence has been achieved in   7 iterations

     Forces acting on atoms (cartesian axes, Ry/au):

     atom    1 type  1   force =     0.00000000   -0.00000000    0.00000000
     atom    2 type  1   force =    -0.00000000    0.00000000   -0.00000000
     atom    3 type  1   force =     0.00000000    0.00000000   -0.00000000
     atom    4 type  1   force =     0.00000000    0.00000000    0.00000000

     Total force =     0.000000     Total SCF correction =     0.000000


     Computing stress (Cartesian axis) and pressure

          total   stress  (Ry/bohr**3)                   (kbar)     P=    0.20
   0.00000069   0.00000000  -0.00000000          0.10      0.00     -0.00
   0.00000000   0.00000069  -0.00000000          0.00      0.10     -0.00
   0.00000000  -0.00000000   0.00000280          0.00     -0.00      0.41


     init_run     :     10.39s CPU      4.63s WALL (       2 calls)
     electrons    :    103.61s CPU     46.84s WALL (       7 calls)
     update_pot   :     42.14s CPU     11.71s WALL (       5 calls)
     forces       :     29.22s CPU      3.19s WALL (       7 calls)
     stress       :     79.69s CPU     12.15s WALL (       7 calls)

     Called by init_run:
     wfcinit      :      1.89s CPU      0.84s WALL (       2 calls)
     potinit      :      2.64s CPU      0.29s WALL (       2 calls)
     hinit0       :      5.70s CPU      3.39s WALL (       2 calls)

     Called by electrons:
     c_bands      :     73.00s CPU     32.89s WALL (      40 calls)
     sum_band     :     25.14s CPU     11.79s WALL (      40 calls)
     v_of_rho     :      2.05s CPU      0.79s WALL (      43 calls)
     newd         :      3.55s CPU      1.58s WALL (      43 calls)
     mix_rho      :      0.38s CPU      0.09s WALL (      40 calls)

     Called by c_bands:
     init_us_2    :      1.67s CPU      0.61s WALL (    1344 calls)
     cegterg      :     71.17s CPU     32.06s WALL (     560 calls)

     Called by sum_band:
     sum_band:bec :      2.14s CPU      0.87s WALL (     560 calls)
     addusdens    :      4.31s CPU      2.12s WALL (      40 calls)

     Called by *egterg:
     h_psi        :     64.12s CPU     29.14s WALL (    1796 calls)
     s_psi        :      0.69s CPU      0.19s WALL (    1796 calls)
     g_psi        :      0.95s CPU      0.42s WALL (    1208 calls)
     cdiaghg      :      0.75s CPU      0.31s WALL (    1642 calls)

     Called by h_psi:
     h_psi:pot    :     62.56s CPU     28.42s WALL (    1796 calls)
     h_psi:calbec :      1.05s CPU      0.32s WALL (    1796 calls)
     vloc_psi     :     60.66s CPU     27.85s WALL (    1796 calls)
     add_vuspsi   :      0.81s CPU      0.25s WALL (    1796 calls)

     General routines
     calbec       :      1.52s CPU      0.49s WALL (    2846 calls)
     fft          :      0.53s CPU      0.17s WALL (     729 calls)
     ffts         :      0.03s CPU      0.01s WALL (      83 calls)
     fftw         :     11.11s CPU      4.22s WALL (   40858 calls)
     interpolate  :      0.06s CPU      0.04s WALL (      43 calls)

     Parallel routines

     PWSCF        :   4m26.05s CPU   1m19.41s WALL


   This run was terminated on:  22:51: 9  14Aug2023            

=------------------------------------------------------------------------------=
   JOB DONE.
=------------------------------------------------------------------------------=
