
     Program BANDS v.7.0 starts on 25Aug2023 at 18:55:57 

     This program is part of the open-source Quantum ESPRESSO suite
     for quantum simulation of materials; please cite
         "P. Giannozzi et al., J. Phys.:Condens. Matter 21 395502 (2009);
         "P. Giannozzi et al., J. Phys.:Condens. Matter 29 465901 (2017);
         "P. Giannozzi et al., J. Chem. Phys. 152 154105 (2020);
          URL http://www.quantum-espresso.org", 
     in publications or presentations arising from this work. More details at
     http://www.quantum-espresso.org/quote

     Serial version
     6285 MiB available memory on the printing compute node when the environment starts


     Reading xml data from directory:

     ../tmp/gr.save/

     IMPORTANT: XC functional enforced from input :
     Exchange-correlation= PBE
                           (   1   4   3   4   0   0   0)
     Any further DFT definition will be discarded
     Please, verify this is what you really want


     G-vector sticks info
     --------------------
     sticks:   dense  smooth     PW     G-vecs:    dense   smooth      PW
     Sum         241     241     85                18211    18211    3425

     Using Slab Decomposition


     Check: negative core charge=   -0.000016

     negative rho (up, down):  4.223E-04 0.000E+00
     Reading collected, re-writing distributed wavefunctions
     high-symmetry point:  0.0000 0.0000 0.0000   x coordinate   0.0000
     high-symmetry point:  0.6667 0.0000 0.0000   x coordinate   0.6667
     high-symmetry point:  0.5000 0.2887 0.0000   x coordinate   1.0000
     high-symmetry point:  0.0000 0.0000 0.0000   x coordinate   1.5774

     Plottable bands (eV) written to file gr.bands.gnu
     Bands written to file gr.bands

 **************************************************************************

                    xk=(   0.00000,   0.00000,   0.00000  )

     point group D_6h(6/mmm)
     there are 12 classes
     the character table:

       E     2C6   2C3   C2    3C2'  3C2'' i     2S3   2S6   s_h   3s_d  3s_v 
A_1g   1.00  1.00  1.00  1.00  1.00  1.00  1.00  1.00  1.00  1.00  1.00  1.00
A_2g   1.00  1.00  1.00  1.00 -1.00 -1.00  1.00  1.00  1.00  1.00 -1.00 -1.00
B_1g   1.00 -1.00  1.00 -1.00  1.00 -1.00  1.00 -1.00  1.00 -1.00  1.00 -1.00
B_2g   1.00 -1.00  1.00 -1.00 -1.00  1.00  1.00 -1.00  1.00 -1.00 -1.00  1.00
E_1g   2.00  1.00 -1.00 -2.00  0.00  0.00  2.00  1.00 -1.00 -2.00  0.00  0.00
E_2g   2.00 -1.00 -1.00  2.00  0.00  0.00  2.00 -1.00 -1.00  2.00  0.00  0.00
A_1u   1.00  1.00  1.00  1.00  1.00  1.00 -1.00 -1.00 -1.00 -1.00 -1.00 -1.00
A_2u   1.00  1.00  1.00  1.00 -1.00 -1.00 -1.00 -1.00 -1.00 -1.00  1.00  1.00
B_1u   1.00 -1.00  1.00 -1.00  1.00 -1.00 -1.00  1.00 -1.00  1.00 -1.00  1.00
B_2u   1.00 -1.00  1.00 -1.00 -1.00  1.00 -1.00  1.00 -1.00  1.00  1.00 -1.00
E_1u   2.00  1.00 -1.00 -2.00  0.00  0.00 -2.00 -1.00  1.00  2.00  0.00  0.00
E_2u   2.00 -1.00 -1.00  2.00  0.00  0.00 -2.00  1.00  1.00 -2.00  0.00  0.00

     the symmetry operations in each class and the name of the first element:

     E        1
                                                                 
     2C6      5    6
                                                                 
     2C3      7    8
                                                                 
     C2       2
                                                                 
     3C2'     4   12   11
                                                                 
     3C2''    3    9   10
                                                                 
     i       13
                                                                 
     2S3     17   18
                                                                 
     2S6     19   20
                                                                 
     s_h     14
                                                                 
     3s_d    16   24   23
                                                                 
     3s_v    15   21   22
                                                                 

     Band symmetry, D_6h(6/mmm) point group:

     e(  1 -  1) =    -21.24579  eV     1   --> A_1g           
     e(  2 -  2) =     -9.34880  eV     1   --> A_2u           
     e(  3 -  4) =     -4.78558  eV     2   --> E_2g           
     e(  5 -  5) =      1.15688  eV     1   --> A_1g           
     e(  6 -  6) =      1.89884  eV     1   --> A_2u           
     e(  7 -  7) =      2.12509  eV     1   --> A_1g           
     e(  8 -  8) =      4.13883  eV     1   --> A_2u           
     e(  9 -  9) =      4.93633  eV     1   --> A_1g           
     e( 10 - 11) =      6.60187  eV     2   --> E_1u           
     e( 12 - 12) =      8.09673  eV     1   --> A_2u           
     e( 13 - 13) =      9.24264  eV     1   --> A_1g           
     e( 14 - 14) =      9.73152  eV     1   --> B_1g           
     e( 15 - 15) =     10.85042  eV     1   --> B_2u           
     e( 16 - 16) =     13.47027  eV     1   --> A_2u           

 **************************************************************************

 **************************************************************************

                    xk=(   0.01667,   0.00000,   0.00000  )

     point group C_2v (mm2) 
     there are  4 classes
     the character table:

       E     C2    s_v   s_v' 
A_1    1.00  1.00  1.00  1.00
A_2    1.00  1.00 -1.00 -1.00
B_1    1.00 -1.00  1.00 -1.00
B_2    1.00 -1.00 -1.00  1.00

     the symmetry operations in each class and the name of the first element:

     E        1
                                                                 
     C2       2
                                                                 
     s_v      4
                                                                 
     s_v'     3
                                                                 

     Band symmetry, C_2v (mm2)  point group:

     e(  1 -  1) =    -21.24087  eV     1   --> A_1  D_1  S_1  
     e(  2 -  2) =     -9.34290  eV     1   --> B_1  D_3  S_3  
     e(  3 -  3) =     -4.80607  eV     1   --> B_2  D_4  S_4  
     e(  4 -  4) =     -4.79649  eV     1   --> A_1  D_1  S_1  
     e(  5 -  5) =      1.16366  eV     1   --> A_1  D_1  S_1  
     e(  6 -  6) =      1.90565  eV     1   --> B_1  D_3  S_3  
     e(  7 -  7) =      2.13186  eV     1   --> A_1  D_1  S_1  
     e(  8 -  8) =      4.14553  eV     1   --> B_1  D_3  S_3  
     e(  9 -  9) =      4.94295  eV     1   --> A_1  D_1  S_1  
     e( 10 - 10) =      6.60507  eV     1   --> A_1  D_1  S_1  
     e( 11 - 11) =      6.62345  eV     1   --> B_2  D_4  S_4  
     e( 12 - 12) =      8.10326  eV     1   --> B_1  D_3  S_3  
     e( 13 - 13) =      9.24945  eV     1   --> A_1  D_1  S_1  
     e( 14 - 14) =      9.71412  eV     1   --> A_2  D_2  S_2  
     e( 15 - 15) =     10.85889  eV     1   --> B_2  D_4  S_4  
     e( 16 - 16) =     13.47637  eV     1   --> B_1  D_3  S_3  

 **************************************************************************

 **************************************************************************

                    xk=(   0.03333,   0.00000,   0.00000  )

     Band symmetry, C_2v (mm2)  point group:

     e(  1 -  1) =    -21.22611  eV     1   --> A_1  D_1  S_1  
     e(  2 -  2) =     -9.32520  eV     1   --> B_1  D_3  S_3  
     e(  3 -  3) =     -4.86686  eV     1   --> B_2  D_4  S_4  
     e(  4 -  4) =     -4.82909  eV     1   --> A_1  D_1  S_1  
     e(  5 -  5) =      1.18399  eV     1   --> A_1  D_1  S_1  
     e(  6 -  6) =      1.92605  eV     1   --> B_1  D_3  S_3  
     e(  7 -  7) =      2.15218  eV     1   --> A_1  D_1  S_1  
     e(  8 -  8) =      4.16565  eV     1   --> B_1  D_3  S_3  
     e(  9 -  9) =      4.96282  eV     1   --> A_1  D_1  S_1  
     e( 10 - 10) =      6.61510  eV     1   --> A_1  D_1  S_1  
     e( 11 - 11) =      6.68736  eV     1   --> B_2  D_4  S_4  
     e( 12 - 12) =      8.12287  eV     1   --> B_1  D_3  S_3  
     e( 13 - 13) =      9.26988  eV     1   --> A_1  D_1  S_1  
     e( 14 - 14) =      9.66208  eV     1   --> A_2  D_2  S_2  
     e( 15 - 15) =     10.88463  eV     1   --> B_2  D_4  S_4  
     e( 16 - 16) =     13.49464  eV     1   --> B_1  D_3  S_3  

 **************************************************************************

 **************************************************************************

                    xk=(   0.05000,   0.00000,   0.00000  )

     Band symmetry, C_2v (mm2)  point group:

     e(  1 -  1) =    -21.20150  eV     1   --> A_1  D_1  S_1  
     e(  2 -  2) =     -9.29573  eV     1   --> B_1  D_3  S_3  
     e(  3 -  3) =     -4.96626  eV     1   --> B_2  D_4  S_4  
     e(  4 -  4) =     -4.88310  eV     1   --> A_1  D_1  S_1  
     e(  5 -  5) =      1.21788  eV     1   --> A_1  D_1  S_1  
     e(  6 -  6) =      1.96006  eV     1   --> B_1  D_3  S_3  
     e(  7 -  7) =      2.18603  eV     1   --> A_1  D_1  S_1  
     e(  8 -  8) =      4.19917  eV     1   --> B_1  D_3  S_3  
     e(  9 -  9) =      4.99595  eV     1   --> A_1  D_1  S_1  
     e( 10 - 10) =      6.63189  eV     1   --> A_1  D_1  S_1  
     e( 11 - 11) =      6.79108  eV     1   --> B_2  D_4  S_4  
     e( 12 - 12) =      8.15554  eV     1   --> B_1  D_3  S_3  
     e( 13 - 13) =      9.30388  eV     1   --> A_1  D_1  S_1  
     e( 14 - 14) =      9.57605  eV     1   --> A_2  D_2  S_2  
     e( 15 - 15) =     10.92826  eV     1   --> B_2  D_4  S_4  
     e( 16 - 16) =     13.52505  eV     1   --> B_1  D_3  S_3  

 **************************************************************************

 **************************************************************************

                    xk=(   0.06667,   0.00000,   0.00000  )

     Band symmetry, C_2v (mm2)  point group:

     e(  1 -  1) =    -21.16707  eV     1   --> A_1  D_1  S_1  
     e(  2 -  2) =     -9.25449  eV     1   --> B_1  D_3  S_3  
     e(  3 -  3) =     -5.10156  eV     1   --> B_2  D_4  S_4  
     e(  4 -  4) =     -4.95806  eV     1   --> A_1  D_1  S_1  
     e(  5 -  5) =      1.26532  eV     1   --> A_1  D_1  S_1  
     e(  6 -  6) =      2.00767  eV     1   --> B_1  D_3  S_3  
     e(  7 -  7) =      2.23343  eV     1   --> A_1  D_1  S_1  
     e(  8 -  8) =      4.24609  eV     1   --> B_1  D_3  S_3  
     e(  9 -  9) =      5.04234  eV     1   --> A_1  D_1  S_1  
     e( 10 - 10) =      6.65592  eV     1   --> A_1  D_1  S_1  
     e( 11 - 11) =      6.93059  eV     1   --> B_2  D_4  S_4  
     e( 12 - 12) =      8.20124  eV     1   --> B_1  D_3  S_3  
     e( 13 - 13) =      9.35142  eV     1   --> A_1  D_1  S_1  
     e( 14 - 14) =      9.45699  eV     1   --> A_2  D_2  S_2  
     e( 15 - 15) =     10.99094  eV     1   --> B_2  D_4  S_4  
     e( 16 - 16) =     13.56748  eV     1   --> B_1  D_3  S_3  

 **************************************************************************

 **************************************************************************

                    xk=(   0.08333,   0.00000,   0.00000  )

     Band symmetry, C_2v (mm2)  point group:

     e(  1 -  1) =    -21.12282  eV     1   --> A_1  D_1  S_1  
     e(  2 -  2) =     -9.20152  eV     1   --> B_1  D_3  S_3  
     e(  3 -  3) =     -5.26945  eV     1   --> B_2  D_4  S_4  
     e(  4 -  4) =     -5.05332  eV     1   --> A_1  D_1  S_1  
     e(  5 -  5) =      1.32631  eV     1   --> A_1  D_1  S_1  
     e(  6 -  6) =      2.06887  eV     1   --> B_1  D_3  S_3  
     e(  7 -  7) =      2.29438  eV     1   --> A_1  D_1  S_1  
     e(  8 -  8) =      4.30639  eV     1   --> B_1  D_3  S_3  
     e(  9 -  9) =      5.10200  eV     1   --> A_1  D_1  S_1  
     e( 10 - 10) =      6.68758  eV     1   --> A_1  D_1  S_1  
     e( 11 - 11) =      7.10068  eV     1   --> B_2  D_4  S_4  
     e( 12 - 12) =      8.25995  eV     1   --> B_1  D_3  S_3  
     e( 13 - 13) =      9.30626  eV     1   --> A_2  D_2  S_2  
     e( 14 - 14) =      9.41243  eV     1   --> A_1  D_1  S_1  
     e( 15 - 15) =     11.07435  eV     1   --> B_2  D_4  S_4  
     e( 16 - 16) =     13.62179  eV     1   --> B_1  D_3  S_3  

 **************************************************************************

 **************************************************************************

                    xk=(   0.10000,   0.00000,   0.00000  )

     Band symmetry, C_2v (mm2)  point group:

     e(  1 -  1) =    -21.06876  eV     1   --> A_1  D_1  S_1  
     e(  2 -  2) =     -9.13687  eV     1   --> B_1  D_3  S_3  
     e(  3 -  3) =     -5.46623  eV     1   --> B_2  D_4  S_4  
     e(  4 -  4) =     -5.16808  eV     1   --> A_1  D_1  S_1  
     e(  5 -  5) =      1.40087  eV     1   --> A_1  D_1  S_1  
     e(  6 -  6) =      2.14367  eV     1   --> B_1  D_3  S_3  
     e(  7 -  7) =      2.36888  eV     1   --> A_1  D_1  S_1  
     e(  8 -  8) =      4.38006  eV     1   --> B_1  D_3  S_3  
     e(  9 -  9) =      5.17495  eV     1   --> A_1  D_1  S_1  
     e( 10 - 10) =      6.72706  eV     1   --> A_1  D_1  S_1  
     e( 11 - 11) =      7.29522  eV     1   --> B_2  D_4  S_4  
     e( 12 - 12) =      8.33161  eV     1   --> B_1  D_3  S_3  
     e( 13 - 13) =      9.12559  eV     1   --> A_2  D_2  S_2  
     e( 14 - 14) =      9.48686  eV     1   --> A_1  D_1  S_1  
     e( 15 - 15) =     11.18044  eV     1   --> B_2  D_4  S_4  
     e( 16 - 16) =     13.68780  eV     1   --> B_1  D_3  S_3  

 **************************************************************************

 **************************************************************************

                    xk=(   0.11667,   0.00000,   0.00000  )

     Band symmetry, C_2v (mm2)  point group:

     e(  1 -  1) =    -21.00492  eV     1   --> A_1  D_1  S_1  
     e(  2 -  2) =     -9.06057  eV     1   --> B_1  D_3  S_3  
     e(  3 -  3) =     -5.68796  eV     1   --> B_2  D_4  S_4  
     e(  4 -  4) =     -5.30140  eV     1   --> A_1  D_1  S_1  
     e(  5 -  5) =      1.48898  eV     1   --> A_1  D_1  S_1  
     e(  6 -  6) =      2.23204  eV     1   --> B_1  D_3  S_3  
     e(  7 -  7) =      2.45694  eV     1   --> A_1  D_1  S_1  
     e(  8 -  8) =      4.46707  eV     1   --> B_1  D_3  S_3  
     e(  9 -  9) =      5.26119  eV     1   --> A_1  D_1  S_1  
     e( 10 - 10) =      6.77516  eV     1   --> A_1  D_1  S_1  
     e( 11 - 11) =      7.50748  eV     1   --> B_2  D_4  S_4  
     e( 12 - 12) =      8.41618  eV     1   --> B_1  D_3  S_3  
     e( 13 - 13) =      8.91684  eV     1   --> A_2  D_2  S_2  
     e( 14 - 14) =      9.57461  eV     1   --> A_1  D_1  S_1  
     e( 15 - 15) =     11.31175  eV     1   --> B_2  D_4  S_4  
     e( 16 - 16) =     13.76522  eV     1   --> B_1  D_3  S_3  

 **************************************************************************

 **************************************************************************

                    xk=(   0.13333,   0.00000,   0.00000  )

     Band symmetry, C_2v (mm2)  point group:

     e(  1 -  1) =    -20.93130  eV     1   --> A_1  D_1  S_1  
     e(  2 -  2) =     -8.97270  eV     1   --> B_1  D_3  S_3  
     e(  3 -  3) =     -5.93082  eV     1   --> B_2  D_4  S_4  
     e(  4 -  4) =     -5.45220  eV     1   --> A_1  D_1  S_1  
     e(  5 -  5) =      1.59065  eV     1   --> A_1  D_1  S_1  
     e(  6 -  6) =      2.33398  eV     1   --> B_1  D_3  S_3  
     e(  7 -  7) =      2.55856  eV     1   --> A_1  D_1  S_1  
     e(  8 -  8) =      4.56742  eV     1   --> B_1  D_3  S_3  
     e(  9 -  9) =      5.36074  eV     1   --> A_1  D_1  S_1  
     e( 10 - 10) =      6.83249  eV     1   --> A_1  D_1  S_1  
     e( 11 - 11) =      7.73058  eV     1   --> B_2  D_4  S_4  
     e( 12 - 12) =      8.51358  eV     1   --> B_1  D_3  S_3  
     e( 13 - 13) =      8.68224  eV     1   --> A_2  D_2  S_2  
     e( 14 - 14) =      9.67563  eV     1   --> A_1  D_1  S_1  
     e( 15 - 15) =     11.47102  eV     1   --> B_2  D_4  S_4  
     e( 16 - 16) =     13.85368  eV     1   --> B_1  D_3  S_3  

 **************************************************************************

 **************************************************************************

                    xk=(   0.15000,   0.00000,   0.00000  )

     Band symmetry, C_2v (mm2)  point group:

     e(  1 -  1) =    -20.84798  eV     1   --> A_1  D_1  S_1  
     e(  2 -  2) =     -8.87333  eV     1   --> B_1  D_3  S_3  
     e(  3 -  3) =     -6.19134  eV     1   --> B_2  D_4  S_4  
     e(  4 -  4) =     -5.61932  eV     1   --> A_1  D_1  S_1  
     e(  5 -  5) =      1.70587  eV     1   --> A_1  D_1  S_1  
     e(  6 -  6) =      2.44947  eV     1   --> B_1  D_3  S_3  
     e(  7 -  7) =      2.67374  eV     1   --> A_1  D_1  S_1  
     e(  8 -  8) =      4.68105  eV     1   --> B_1  D_3  S_3  
     e(  9 -  9) =      5.47360  eV     1   --> A_1  D_1  S_1  
     e( 10 - 10) =      6.89923  eV     1   --> A_1  D_1  S_1  
     e( 11 - 11) =      7.95768  eV     1   --> B_2  D_4  S_4  
     e( 12 - 12) =      8.42399  eV     1   --> A_2  D_2  S_2  
     e( 13 - 13) =      8.62371  eV     1   --> B_1  D_3  S_3  
     e( 14 - 14) =      9.78983  eV     1   --> A_1  D_1  S_1  
     e( 15 - 15) =     11.66083  eV     1   --> B_2  D_4  S_4  
     e( 16 - 16) =     13.95267  eV     1   --> B_1  D_3  S_3  

 **************************************************************************

 **************************************************************************

                    xk=(   0.16667,   0.00000,   0.00000  )

     Band symmetry, C_2v (mm2)  point group:

     e(  1 -  1) =    -20.75490  eV     1   --> A_1  D_1  S_1  
     e(  2 -  2) =     -8.76253  eV     1   --> B_1  D_3  S_3  
     e(  3 -  3) =     -6.46609  eV     1   --> B_2  D_4  S_4  
     e(  4 -  4) =     -5.80147  eV     1   --> A_1  D_1  S_1  
     e(  5 -  5) =      1.83465  eV     1   --> A_1  D_1  S_1  
     e(  6 -  6) =      2.57851  eV     1   --> B_1  D_3  S_3  
     e(  7 -  7) =      2.80248  eV     1   --> A_1  D_1  S_1  
     e(  8 -  8) =      4.80794  eV     1   --> B_1  D_3  S_3  
     e(  9 -  9) =      5.59979  eV     1   --> A_1  D_1  S_1  
     e( 10 - 10) =      6.97608  eV     1   --> A_1  D_1  S_1  
     e( 11 - 11) =      8.14450  eV     1   --> A_2  D_2  S_2  
     e( 12 - 12) =      8.18269  eV     1   --> B_2  D_4  S_4  
     e( 13 - 13) =      8.74647  eV     1   --> B_1  D_3  S_3  
     e( 14 - 14) =      9.91718  eV     1   --> A_1  D_1  S_1  
     e( 15 - 15) =     11.88347  eV     1   --> B_2  D_4  S_4  
     e( 16 - 16) =     14.06150  eV     1   --> B_1  D_3  S_3  

 **************************************************************************

 **************************************************************************

                    xk=(   0.18333,   0.00000,   0.00000  )

     Band symmetry, C_2v (mm2)  point group:

     e(  1 -  1) =    -20.65214  eV     1   --> A_1  D_1  S_1  
     e(  2 -  2) =     -8.64040  eV     1   --> B_1  D_3  S_3  
     e(  3 -  3) =     -6.75221  eV     1   --> B_2  D_4  S_4  
     e(  4 -  4) =     -5.99736  eV     1   --> A_1  D_1  S_1  
     e(  5 -  5) =      1.97697  eV     1   --> A_1  D_1  S_1  
     e(  6 -  6) =      2.72107  eV     1   --> B_1  D_3  S_3  
     e(  7 -  7) =      2.94479  eV     1   --> A_1  D_1  S_1  
     e(  8 -  8) =      4.94804  eV     1   --> B_1  D_3  S_3  
     e(  9 -  9) =      5.73930  eV     1   --> A_1  D_1  S_1  
     e( 10 - 10) =      7.06337  eV     1   --> A_1  D_1  S_1  
     e( 11 - 11) =      7.84615  eV     1   --> A_2  D_2  S_2  
     e( 12 - 12) =      8.40049  eV     1   --> B_2  D_4  S_4  
     e( 13 - 13) =      8.88169  eV     1   --> B_1  D_3  S_3  
     e( 14 - 14) =     10.05761  eV     1   --> A_1  D_1  S_1  
     e( 15 - 15) =     12.14035  eV     1   --> B_2  D_4  S_4  
     e( 16 - 16) =     14.17918  eV     1   --> B_1  D_3  S_3  

 **************************************************************************

 **************************************************************************

                    xk=(   0.20000,   0.00000,   0.00000  )

     Band symmetry, C_2v (mm2)  point group:

     e(  1 -  1) =    -20.53974  eV     1   --> A_1  D_1  S_1  
     e(  2 -  2) =     -8.50706  eV     1   --> B_1  D_3  S_3  
     e(  3 -  3) =     -7.04711  eV     1   --> B_2  D_4  S_4  
     e(  4 -  4) =     -6.20570  eV     1   --> A_1  D_1  S_1  
     e(  5 -  5) =      2.13282  eV     1   --> A_1  D_1  S_1  
     e(  6 -  6) =      2.87714  eV     1   --> B_1  D_3  S_3  
     e(  7 -  7) =      3.10066  eV     1   --> A_1  D_1  S_1  
     e(  8 -  8) =      5.10130  eV     1   --> B_1  D_3  S_3  
     e(  9 -  9) =      5.89211  eV     1   --> A_1  D_1  S_1  
     e( 10 - 10) =      7.16120  eV     1   --> A_1  D_1  S_1  
     e( 11 - 11) =      7.53127  eV     1   --> A_2  D_2  S_2  
     e( 12 - 12) =      8.60739  eV     1   --> B_2  D_4  S_4  
     e( 13 - 13) =      9.02921  eV     1   --> B_1  D_3  S_3  
     e( 14 - 14) =     10.21105  eV     1   --> A_1  D_1  S_1  
     e( 15 - 15) =     12.43147  eV     1   --> B_2  D_4  S_4  
     e( 16 - 16) =     14.30430  eV     1   --> B_1  D_3  S_3  

 **************************************************************************

 **************************************************************************

                    xk=(   0.21667,   0.00000,   0.00000  )

     Band symmetry, C_2v (mm2)  point group:

     e(  1 -  1) =    -20.41774  eV     1   --> A_1  D_1  S_1  
     e(  2 -  2) =     -8.36263  eV     1   --> B_1  D_3  S_3  
     e(  3 -  3) =     -7.34842  eV     1   --> B_2  D_4  S_4  
     e(  4 -  4) =     -6.42507  eV     1   --> A_1  D_1  S_1  
     e(  5 -  5) =      2.30220  eV     1   --> A_1  D_1  S_1  
     e(  6 -  6) =      3.04668  eV     1   --> B_1  D_3  S_3  
     e(  7 -  7) =      3.27008  eV     1   --> A_1  D_1  S_1  
     e(  8 -  8) =      5.26764  eV     1   --> B_1  D_3  S_3  
     e(  9 -  9) =      6.05822  eV     1   --> A_1  D_1  S_1  
     e( 10 - 10) =      7.20225  eV     1   --> A_2  D_2  S_2  
     e( 11 - 11) =      7.26998  eV     1   --> A_1  D_1  S_1  
     e( 12 - 12) =      8.80137  eV     1   --> B_2  D_4  S_4  
     e( 13 - 13) =      9.18878  eV     1   --> B_1  D_3  S_3  
     e( 14 - 14) =     10.37746  eV     1   --> A_1  D_1  S_1  
     e( 15 - 15) =     12.75563  eV     1   --> B_2  D_4  S_4  
     e( 16 - 16) =     14.43482  eV     1   --> B_1  D_3  S_3  

 **************************************************************************

 **************************************************************************

                    xk=(   0.23333,   0.00000,   0.00000  )

     Band symmetry, C_2v (mm2)  point group:

     e(  1 -  1) =    -20.28620  eV     1   --> A_1  D_1  S_1  
     e(  2 -  2) =     -8.20725  eV     1   --> B_1  D_3  S_3  
     e(  3 -  3) =     -7.65421  eV     1   --> B_2  D_4  S_4  
     e(  4 -  4) =     -6.65416  eV     1   --> A_1  D_1  S_1  
     e(  5 -  5) =      2.48510  eV     1   --> A_1  D_1  S_1  
     e(  6 -  6) =      3.22967  eV     1   --> B_1  D_3  S_3  
     e(  7 -  7) =      3.45305  eV     1   --> A_1  D_1  S_1  
     e(  8 -  8) =      5.44698  eV     1   --> B_1  D_3  S_3  
     e(  9 -  9) =      6.23759  eV     1   --> A_1  D_1  S_1  
     e( 10 - 10) =      6.86129  eV     1   --> A_2  D_2  S_2  
     e( 11 - 11) =      7.38989  eV     1   --> A_1  D_1  S_1  
     e( 12 - 12) =      8.98182  eV     1   --> B_2  D_4  S_4  
     e( 13 - 13) =      9.36009  eV     1   --> B_1  D_3  S_3  
     e( 14 - 14) =     10.55680  eV     1   --> A_1  D_1  S_1  
     e( 15 - 15) =     13.11020  eV     1   --> B_2  D_4  S_4  
     e( 16 - 16) =     14.56761  eV     1   --> B_1  D_3  S_3  

 **************************************************************************

 **************************************************************************

                    xk=(   0.25000,   0.00000,   0.00000  )

     Band symmetry, C_2v (mm2)  point group:

     e(  1 -  1) =    -20.14517  eV     1   --> A_1  D_1  S_1  
     e(  2 -  2) =     -8.04110  eV     1   --> B_1  D_3  S_3  
     e(  3 -  3) =     -7.96273  eV     1   --> B_2  D_4  S_4  
     e(  4 -  4) =     -6.89166  eV     1   --> A_1  D_1  S_1  
     e(  5 -  5) =      2.68149  eV     1   --> A_1  D_1  S_1  
     e(  6 -  6) =      3.42606  eV     1   --> B_1  D_3  S_3  
     e(  7 -  7) =      3.64956  eV     1   --> A_1  D_1  S_1  
     e(  8 -  8) =      5.63923  eV     1   --> B_1  D_3  S_3  
     e(  9 -  9) =      6.43018  eV     1   --> A_1  D_1  S_1  
     e( 10 - 10) =      6.51049  eV     1   --> A_2  D_2  S_2  
     e( 11 - 11) =      7.52083  eV     1   --> A_1  D_1  S_1  
     e( 12 - 12) =      9.14923  eV     1   --> B_2  D_4  S_4  
     e( 13 - 13) =      9.54274  eV     1   --> B_1  D_3  S_3  
     e( 14 - 14) =     10.74901  eV     1   --> A_1  D_1  S_1  
     e( 15 - 15) =     13.49146  eV     1   --> B_2  D_4  S_4  
     e( 16 - 16) =     14.69783  eV     1   --> B_1  D_3  S_3  

 **************************************************************************

 **************************************************************************

                    xk=(   0.26667,   0.00000,   0.00000  )

     Band symmetry, C_2v (mm2)  point group:

     e(  1 -  1) =    -19.99469  eV     1   --> A_1  D_1  S_1  
     e(  2 -  2) =     -8.27253  eV     1   --> B_2  D_4  S_4  
     e(  3 -  3) =     -7.86433  eV     1   --> B_1  D_3  S_3  
     e(  4 -  4) =     -7.13623  eV     1   --> A_1  D_1  S_1  
     e(  5 -  5) =      2.89137  eV     1   --> A_1  D_1  S_1  
     e(  6 -  6) =      3.63581  eV     1   --> B_1  D_3  S_3  
     e(  7 -  7) =      3.85961  eV     1   --> A_1  D_1  S_1  
     e(  8 -  8) =      5.84425  eV     1   --> B_1  D_3  S_3  
     e(  9 -  9) =      6.15183  eV     1   --> A_2  D_2  S_2  
     e( 10 - 10) =      6.63593  eV     1   --> A_1  D_1  S_1  
     e( 11 - 11) =      7.66289  eV     1   --> A_1  D_1  S_1  
     e( 12 - 12) =      9.30488  eV     1   --> B_2  D_4  S_4  
     e( 13 - 13) =      9.73618  eV     1   --> B_1  D_3  S_3  
     e( 14 - 14) =     10.95405  eV     1   --> A_1  D_1  S_1  
     e( 15 - 15) =     13.89469  eV     1   --> B_2  D_4  S_4  
     e( 16 - 16) =     14.81783  eV     1   --> B_1  D_3  S_3  

 **************************************************************************

 **************************************************************************

                    xk=(   0.28333,   0.00000,   0.00000  )

     Band symmetry, C_2v (mm2)  point group:

     e(  1 -  1) =    -19.83486  eV     1   --> A_1  D_1  S_1  
     e(  2 -  2) =     -8.58232  eV     1   --> B_2  D_4  S_4  
     e(  3 -  3) =     -7.67717  eV     1   --> B_1  D_3  S_3  
     e(  4 -  4) =     -7.38667  eV     1   --> A_1  D_1  S_1  
     e(  5 -  5) =      3.11470  eV     1   --> A_1  D_1  S_1  
     e(  6 -  6) =      3.85886  eV     1   --> B_1  D_3  S_3  
     e(  7 -  7) =      4.08318  eV     1   --> A_1  D_1  S_1  
     e(  8 -  8) =      5.78718  eV     1   --> A_2  D_2  S_2  
     e(  9 -  9) =      6.06188  eV     1   --> B_1  D_3  S_3  
     e( 10 - 10) =      6.85475  eV     1   --> A_1  D_1  S_1  
     e( 11 - 11) =      7.81598  eV     1   --> A_1  D_1  S_1  
     e( 12 - 12) =      9.45038  eV     1   --> B_2  D_4  S_4  
     e( 13 - 13) =      9.93968  eV     1   --> B_1  D_3  S_3  
     e( 14 - 14) =     11.17183  eV     1   --> A_1  D_1  S_1  
     e( 15 - 15) =     14.31476  eV     1   --> B_2  D_4  S_4  
     e( 16 - 16) =     14.91546  eV     1   --> B_1  D_3  S_3  

 **************************************************************************

 **************************************************************************

                    xk=(   0.30000,   0.00000,   0.00000  )

     Band symmetry, C_2v (mm2)  point group:

     e(  1 -  1) =    -19.66575  eV     1   --> A_1  D_1  S_1  
     e(  2 -  2) =     -8.89098  eV     1   --> B_2  D_4  S_4  
     e(  3 -  3) =     -7.64174  eV     1   --> A_1  D_1  S_1  
     e(  4 -  4) =     -7.47985  eV     1   --> B_1  D_3  S_3  
     e(  5 -  5) =      3.35147  eV     1   --> A_1  D_1  S_1  
     e(  6 -  6) =      4.09514  eV     1   --> B_1  D_3  S_3  
     e(  7 -  7) =      4.32025  eV     1   --> A_1  D_1  S_1  
     e(  8 -  8) =      5.41817  eV     1   --> A_2  D_2  S_2  
     e(  9 -  9) =      6.29192  eV     1   --> B_1  D_3  S_3  
     e( 10 - 10) =      7.08652  eV     1   --> A_1  D_1  S_1  
     e( 11 - 11) =      7.98013  eV     1   --> A_1  D_1  S_1  
     e( 12 - 12) =      9.58741  eV     1   --> B_2  D_4  S_4  
     e( 13 - 13) =     10.15221  eV     1   --> B_1  D_3  S_3  
     e( 14 - 14) =     11.40229  eV     1   --> A_1  D_1  S_1  
     e( 15 - 15) =     14.74612  eV     1   --> B_2  D_4  S_4  
     e( 16 - 16) =     14.97272  eV     1   --> B_1  D_3  S_3  

 **************************************************************************

 **************************************************************************

                    xk=(   0.31667,   0.00000,   0.00000  )

     Band symmetry, C_2v (mm2)  point group:

     e(  1 -  1) =    -19.48745  eV     1   --> A_1  D_1  S_1  
     e(  2 -  2) =     -9.19755  eV     1   --> B_2  D_4  S_4  
     e(  3 -  3) =     -7.90031  eV     1   --> A_1  D_1  S_1  
     e(  4 -  4) =     -7.27263  eV     1   --> B_1  D_3  S_3  
     e(  5 -  5) =      3.60164  eV     1   --> A_1  D_1  S_1  
     e(  6 -  6) =      4.34455  eV     1   --> B_1  D_3  S_3  
     e(  7 -  7) =      4.57081  eV     1   --> A_1  D_1  S_1  
     e(  8 -  8) =      5.04650  eV     1   --> A_2  D_2  S_2  
     e(  9 -  9) =      6.53411  eV     1   --> B_1  D_3  S_3  
     e( 10 - 10) =      7.33108  eV     1   --> A_1  D_1  S_1  
     e( 11 - 11) =      8.15525  eV     1   --> A_1  D_1  S_1  
     e( 12 - 12) =      9.71760  eV     1   --> B_2  D_4  S_4  
     e( 13 - 13) =     10.37230  eV     1   --> B_1  D_3  S_3  
     e( 14 - 14) =     11.64533  eV     1   --> A_1  D_1  S_1  
     e( 15 - 15) =     14.96756  eV     1   --> B_1  D_3  S_3  
     e( 16 - 16) =     15.18193  eV     1   --> B_2  D_4  S_4  

 **************************************************************************

 **************************************************************************

                    xk=(   0.33333,   0.00000,   0.00000  )

     Band symmetry, C_2v (mm2)  point group:

     e(  1 -  1) =    -19.30005  eV     1   --> A_1  D_1  S_1  
     e(  2 -  2) =     -9.50120  eV     1   --> B_2  D_4  S_4  
     e(  3 -  3) =     -8.16130  eV     1   --> A_1  D_1  S_1  
     e(  4 -  4) =     -7.05579  eV     1   --> B_1  D_3  S_3  
     e(  5 -  5) =      3.86518  eV     1   --> A_1  D_1  S_1  
     e(  6 -  6) =      4.60699  eV     1   --> B_1  D_3  S_3  
     e(  7 -  7) =      4.67357  eV     1   --> A_2  D_2  S_2  
     e(  8 -  8) =      4.83484  eV     1   --> A_1  D_1  S_1  
     e(  9 -  9) =      6.78810  eV     1   --> B_1  D_3  S_3  
     e( 10 - 10) =      7.58816  eV     1   --> A_1  D_1  S_1  
     e( 11 - 11) =      8.34104  eV     1   --> A_1  D_1  S_1  
     e( 12 - 12) =      9.84231  eV     1   --> B_2  D_4  S_4  
     e( 13 - 13) =     10.59779  eV     1   --> B_1  D_3  S_3  
     e( 14 - 14) =     11.90085  eV     1   --> A_1  D_1  S_1  
     e( 15 - 15) =     14.88426  eV     1   --> B_1  D_3  S_3  
     e( 16 - 16) =     15.61464  eV     1   --> B_2  D_4  S_4  

 **************************************************************************

 **************************************************************************

                    xk=(   0.35000,   0.00000,   0.00000  )

     Band symmetry, C_2v (mm2)  point group:

     e(  1 -  1) =    -19.10370  eV     1   --> A_1  D_1  S_1  
     e(  2 -  2) =     -9.80128  eV     1   --> B_2  D_4  S_4  
     e(  3 -  3) =     -8.42371  eV     1   --> A_1  D_1  S_1  
     e(  4 -  4) =     -6.82967  eV     1   --> B_1  D_3  S_3  
     e(  5 -  5) =      4.14204  eV     1   --> A_1  D_1  S_1  
     e(  6 -  6) =      4.30062  eV     1   --> A_2  D_2  S_2  
     e(  7 -  7) =      4.88230  eV     1   --> B_1  D_3  S_3  
     e(  8 -  8) =      5.11231  eV     1   --> A_1  D_1  S_1  
     e(  9 -  9) =      7.05343  eV     1   --> B_1  D_3  S_3  
     e( 10 - 10) =      7.85741  eV     1   --> A_1  D_1  S_1  
     e( 11 - 11) =      8.53738  eV     1   --> A_1  D_1  S_1  
     e( 12 - 12) =      9.96263  eV     1   --> B_2  D_4  S_4  
     e( 13 - 13) =     10.82539  eV     1   --> B_1  D_3  S_3  
     e( 14 - 14) =     12.16868  eV     1   --> A_1  D_1  S_1  
     e( 15 - 15) =     14.72778  eV     1   --> B_1  D_3  S_3  
     e( 16 - 16) =     16.03399  eV     1   --> B_2  D_4  S_4  

 **************************************************************************

 **************************************************************************

                    xk=(   0.36667,   0.00000,   0.00000  )

     Band symmetry, C_2v (mm2)  point group:

     e(  1 -  1) =    -18.89850  eV     1   --> A_1  D_1  S_1  
     e(  2 -  2) =    -10.09712  eV     1   --> B_2  D_4  S_4  
     e(  3 -  3) =     -8.68655  eV     1   --> A_1  D_1  S_1  
     e(  4 -  4) =     -6.59466  eV     1   --> B_1  D_3  S_3  
     e(  5 -  5) =      3.92891  eV     1   --> A_2  D_2  S_2  
     e(  6 -  6) =      4.43217  eV     1   --> A_1  D_1  S_1  
     e(  7 -  7) =      5.17028  eV     1   --> B_1  D_3  S_3  
     e(  8 -  8) =      5.40319  eV     1   --> A_1  D_1  S_1  
     e(  9 -  9) =      7.32946  eV     1   --> B_1  D_3  S_3  
     e( 10 - 10) =      8.13823  eV     1   --> A_1  D_1  S_1  
     e( 11 - 11) =      8.74439  eV     1   --> A_1  D_1  S_1  
     e( 12 - 12) =     10.07949  eV     1   --> B_2  D_4  S_4  
     e( 13 - 13) =     11.04999  eV     1   --> B_1  D_3  S_3  
     e( 14 - 14) =     12.44862  eV     1   --> A_1  D_1  S_1  
     e( 15 - 15) =     14.52424  eV     1   --> B_1  D_3  S_3  
     e( 16 - 16) =     16.42426  eV     1   --> B_2  D_4  S_4  

 **************************************************************************

 **************************************************************************

                    xk=(   0.38333,   0.00000,   0.00000  )

     Band symmetry, C_2v (mm2)  point group:

     e(  1 -  1) =    -18.68462  eV     1   --> A_1  D_1  S_1  
     e(  2 -  2) =    -10.38820  eV     1   --> B_2  D_4  S_4  
     e(  3 -  3) =     -8.94886  eV     1   --> A_1  D_1  S_1  
     e(  4 -  4) =     -6.35116  eV     1   --> B_1  D_3  S_3  
     e(  5 -  5) =      3.55946  eV     1   --> A_2  D_2  S_2  
     e(  6 -  6) =      4.73551  eV     1   --> A_1  D_1  S_1  
     e(  7 -  7) =      5.47067  eV     1   --> B_1  D_3  S_3  
     e(  8 -  8) =      5.70745  eV     1   --> A_1  D_1  S_1  
     e(  9 -  9) =      7.61533  eV     1   --> B_1  D_3  S_3  
     e( 10 - 10) =      8.42971  eV     1   --> A_1  D_1  S_1  
     e( 11 - 11) =      8.96240  eV     1   --> A_1  D_1  S_1  
     e( 12 - 12) =     10.19361  eV     1   --> B_2  D_4  S_4  
     e( 13 - 13) =     11.26356  eV     1   --> B_1  D_3  S_3  
     e( 14 - 14) =     12.74042  eV     1   --> A_1  D_1  S_1  
     e( 15 - 15) =     14.30769  eV     1   --> B_1  D_3  S_3  
     e( 16 - 16) =     16.75978  eV     1   --> B_2  D_4  S_4  

 **************************************************************************

 **************************************************************************

                    xk=(   0.40000,   0.00000,   0.00000  )

     Band symmetry, C_2v (mm2)  point group:

     e(  1 -  1) =    -18.46222  eV     1   --> A_1  D_1  S_1  
     e(  2 -  2) =    -10.67406  eV     1   --> B_2  D_4  S_4  
     e(  3 -  3) =     -9.20979  eV     1   --> A_1  D_1  S_1  
     e(  4 -  4) =     -6.09964  eV     1   --> B_1  D_3  S_3  
     e(  5 -  5) =      3.19327  eV     1   --> A_2  D_2  S_2  
     e(  6 -  6) =      5.05198  eV     1   --> A_1  D_1  S_1  
     e(  7 -  7) =      5.78309  eV     1   --> B_1  D_3  S_3  
     e(  8 -  8) =      6.02503  eV     1   --> A_1  D_1  S_1  
     e(  9 -  9) =      7.90975  eV     1   --> B_1  D_3  S_3  
     e( 10 - 10) =      8.73018  eV     1   --> A_1  D_1  S_1  
     e( 11 - 11) =      9.19202  eV     1   --> A_1  D_1  S_1  
     e( 12 - 12) =     10.30539  eV     1   --> B_2  D_4  S_4  
     e( 13 - 13) =     11.45358  eV     1   --> B_1  D_3  S_3  
     e( 14 - 14) =     13.04373  eV     1   --> A_1  D_1  S_1  
     e( 15 - 15) =     14.11184  eV     1   --> B_1  D_3  S_3  
     e( 16 - 16) =     16.99545  eV     1   --> B_2  D_4  S_4  

 **************************************************************************

 **************************************************************************

                    xk=(   0.41667,   0.00000,   0.00000  )

     Band symmetry, C_2v (mm2)  point group:

     e(  1 -  1) =    -18.23151  eV     1   --> A_1  D_1  S_1  
     e(  2 -  2) =    -10.95431  eV     1   --> B_2  D_4  S_4  
     e(  3 -  3) =     -9.46851  eV     1   --> A_1  D_1  S_1  
     e(  4 -  4) =     -5.84065  eV     1   --> B_1  D_3  S_3  
     e(  5 -  5) =      2.83117  eV     1   --> A_2  D_2  S_2  
     e(  6 -  6) =      5.38148  eV     1   --> A_1  D_1  S_1  
     e(  7 -  7) =      6.10703  eV     1   --> B_1  D_3  S_3  
     e(  8 -  8) =      6.35588  eV     1   --> A_1  D_1  S_1  
     e(  9 -  9) =      8.21083  eV     1   --> B_1  D_3  S_3  
     e( 10 - 10) =      9.03672  eV     1   --> A_1  D_1  S_1  
     e( 11 - 11) =      9.43524  eV     1   --> A_1  D_1  S_1  
     e( 12 - 12) =     10.41508  eV     1   --> B_2  D_4  S_4  
     e( 13 - 13) =     11.60248  eV     1   --> B_1  D_3  S_3  
     e( 14 - 14) =     13.35806  eV     1   --> A_1  D_1  S_1  
     e( 15 - 15) =     13.96957  eV     1   --> B_1  D_3  S_3  
     e( 16 - 16) =     17.06711  eV     1   --> B_2  D_4  S_4  

 **************************************************************************

 **************************************************************************

                    xk=(   0.43333,   0.00000,   0.00000  )

     Band symmetry, C_2v (mm2)  point group:

     e(  1 -  1) =    -17.99275  eV     1   --> A_1  D_1  S_1  
     e(  2 -  2) =    -11.22859  eV     1   --> B_2  D_4  S_4  
     e(  3 -  3) =     -9.72424  eV     1   --> A_1  D_1  S_1  
     e(  4 -  4) =     -5.57480  eV     1   --> B_1  D_3  S_3  
     e(  5 -  5) =      2.47395  eV     1   --> A_2  D_2  S_2  
     e(  6 -  6) =      5.72389  eV     1   --> A_1  D_1  S_1  
     e(  7 -  7) =      6.44171  eV     1   --> B_1  D_3  S_3  
     e(  8 -  8) =      6.69994  eV     1   --> A_1  D_1  S_1  
     e(  9 -  9) =      8.51570  eV     1   --> B_1  D_3  S_3  
     e( 10 - 10) =      9.34408  eV     1   --> A_1  D_1  S_1  
     e( 11 - 11) =      9.69594  eV     1   --> A_1  D_1  S_1  
     e( 12 - 12) =     10.52271  eV     1   --> B_2  D_4  S_4  
     e( 13 - 13) =     11.69169  eV     1   --> B_1  D_3  S_3  
     e( 14 - 14) =     13.68270  eV     1   --> A_1  D_1  S_1  
     e( 15 - 15) =     13.91109  eV     1   --> B_1  D_3  S_3  
     e( 16 - 16) =     16.94403  eV     1   --> B_2  D_4  S_4  

 **************************************************************************

 **************************************************************************

                    xk=(   0.45000,   0.00000,   0.00000  )

     Band symmetry, C_2v (mm2)  point group:

     e(  1 -  1) =    -17.74619  eV     1   --> A_1  D_1  S_1  
     e(  2 -  2) =    -11.49659  eV     1   --> B_2  D_4  S_4  
     e(  3 -  3) =     -9.97614  eV     1   --> A_1  D_1  S_1  
     e(  4 -  4) =     -5.30273  eV     1   --> B_1  D_3  S_3  
     e(  5 -  5) =      2.12241  eV     1   --> A_2  D_2  S_2  
     e(  6 -  6) =      6.07905  eV     1   --> A_1  D_1  S_1  
     e(  7 -  7) =      6.78596  eV     1   --> B_1  D_3  S_3  
     e(  8 -  8) =      7.05711  eV     1   --> A_1  D_1  S_1  
     e(  9 -  9) =      8.81983  eV     1   --> B_1  D_3  S_3  
     e( 10 - 10) =      9.64459  eV     1   --> A_1  D_1  S_1  
     e( 11 - 11) =      9.98048  eV     1   --> A_1  D_1  S_1  
     e( 12 - 12) =     10.62827  eV     1   --> B_2  D_4  S_4  
     e( 13 - 13) =     11.71437  eV     1   --> B_1  D_3  S_3  
     e( 14 - 14) =     13.95371  eV     1   --> B_1  D_3  S_3  
     e( 15 - 15) =     14.01665  eV     1   --> A_1  D_1  S_1  
     e( 16 - 16) =     16.67983  eV     1   --> B_2  D_4  S_4  

 **************************************************************************

 **************************************************************************

                    xk=(   0.46667,   0.00000,   0.00000  )

     Band symmetry, C_2v (mm2)  point group:

     e(  1 -  1) =    -17.49224  eV     1   --> A_1  D_1  S_1  
     e(  2 -  2) =    -11.75805  eV     1   --> B_2  D_4  S_4  
     e(  3 -  3) =    -10.22348  eV     1   --> A_1  D_1  S_1  
     e(  4 -  4) =     -5.02527  eV     1   --> B_1  D_3  S_3  
     e(  5 -  5) =      1.77707  eV     1   --> A_2  D_2  S_2  
     e(  6 -  6) =      6.44675  eV     1   --> A_1  D_1  S_1  
     e(  7 -  7) =      7.13791  eV     1   --> B_1  D_3  S_3  
     e(  8 -  8) =      7.42726  eV     1   --> A_1  D_1  S_1  
     e(  9 -  9) =      9.11596  eV     1   --> B_1  D_3  S_3  
     e( 10 - 10) =      9.93092  eV     1   --> A_1  D_1  S_1  
     e( 11 - 11) =     10.29399  eV     1   --> A_1  D_1  S_1  
     e( 12 - 12) =     10.73104  eV     1   --> B_2  D_4  S_4  
     e( 13 - 13) =     11.68731  eV     1   --> B_1  D_3  S_3  
     e( 14 - 14) =     14.09202  eV     1   --> B_1  D_3  S_3  
     e( 15 - 15) =     14.35827  eV     1   --> A_1  D_1  S_1  
     e( 16 - 16) =     16.34823  eV     1   --> B_2  D_4  S_4  

 **************************************************************************

 **************************************************************************

                    xk=(   0.48333,   0.00000,   0.00000  )

     Band symmetry, C_2v (mm2)  point group:

     e(  1 -  1) =    -17.23125  eV     1   --> A_1  D_1  S_1  
     e(  2 -  2) =    -12.01272  eV     1   --> B_2  D_4  S_4  
     e(  3 -  3) =    -10.46546  eV     1   --> A_1  D_1  S_1  
     e(  4 -  4) =     -4.74325  eV     1   --> B_1  D_3  S_3  
     e(  5 -  5) =      1.43864  eV     1   --> A_2  D_2  S_2  
     e(  6 -  6) =      6.82671  eV     1   --> A_1  D_1  S_1  
     e(  7 -  7) =      7.49442  eV     1   --> B_1  D_3  S_3  
     e(  8 -  8) =      7.81026  eV     1   --> A_1  D_1  S_1  
     e(  9 -  9) =      9.39291  eV     1   --> B_1  D_3  S_3  
     e( 10 - 10) =     10.20124  eV     1   --> A_1  D_1  S_1  
     e( 11 - 11) =     10.63573  eV     1   --> A_1  D_1  S_1  
     e( 12 - 12) =     10.83042  eV     1   --> B_2  D_4  S_4  
     e( 13 - 13) =     11.64735  eV     1   --> B_1  D_3  S_3  
     e( 14 - 14) =     14.30394  eV     1   --> B_1  D_3  S_3  
     e( 15 - 15) =     14.70469  eV     1   --> A_1  D_1  S_1  
     e( 16 - 16) =     15.99225  eV     1   --> B_2  D_4  S_4  

 **************************************************************************

 **************************************************************************

                    xk=(   0.50000,   0.00000,   0.00000  )

     Band symmetry, C_2v (mm2)  point group:

     e(  1 -  1) =    -16.96380  eV     1   --> A_1  D_1  S_1  
     e(  2 -  2) =    -12.26041  eV     1   --> B_2  D_4  S_4  
     e(  3 -  3) =    -10.70125  eV     1   --> A_1  D_1  S_1  
     e(  4 -  4) =     -4.45767  eV     1   --> B_1  D_3  S_3  
     e(  5 -  5) =      1.10757  eV     1   --> A_2  D_2  S_2  
     e(  6 -  6) =      7.21856  eV     1   --> A_1  D_1  S_1  
     e(  7 -  7) =      7.84993  eV     1   --> B_1  D_3  S_3  
     e(  8 -  8) =      8.20589  eV     1   --> A_1  D_1  S_1  
     e(  9 -  9) =      9.63549  eV     1   --> B_1  D_3  S_3  
     e( 10 - 10) =     10.45768  eV     1   --> A_1  D_1  S_1  
     e( 11 - 11) =     10.92542  eV     1   --> B_2  D_4  S_4  
     e( 12 - 12) =     11.00033  eV     1   --> A_1  D_1  S_1  
     e( 13 - 13) =     11.63837  eV     1   --> B_1  D_3  S_3  
     e( 14 - 14) =     14.56352  eV     1   --> B_1  D_3  S_3  
     e( 15 - 15) =     15.04859  eV     1   --> A_1  D_1  S_1  
     e( 16 - 16) =     15.63166  eV     1   --> B_2  D_4  S_4  

 **************************************************************************

 **************************************************************************

                    xk=(   0.51667,   0.00000,   0.00000  )

     Band symmetry, C_2v (mm2)  point group:

     e(  1 -  1) =    -16.69052  eV     1   --> A_1  D_1  S_1  
     e(  2 -  2) =    -12.50092  eV     1   --> B_2  D_4  S_4  
     e(  3 -  3) =    -10.92995  eV     1   --> A_1  D_1  S_1  
     e(  4 -  4) =     -4.16963  eV     1   --> B_1  D_3  S_3  
     e(  5 -  5) =      0.78435  eV     1   --> A_2  D_2  S_2  
     e(  6 -  6) =      7.62178  eV     1   --> A_1  D_1  S_1  
     e(  7 -  7) =      8.19412  eV     1   --> B_1  D_3  S_3  
     e(  8 -  8) =      8.61386  eV     1   --> A_1  D_1  S_1  
     e(  9 -  9) =      9.83118  eV     1   --> B_1  D_3  S_3  
     e( 10 - 10) =     10.70162  eV     1   --> A_1  D_1  S_1  
     e( 11 - 11) =     11.01471  eV     1   --> B_2  D_4  S_4  
     e( 12 - 12) =     11.38225  eV     1   --> A_1  D_1  S_1  
     e( 13 - 13) =     11.70042  eV     1   --> B_1  D_3  S_3  
     e( 14 - 14) =     14.84366  eV     1   --> B_1  D_3  S_3  
     e( 15 - 15) =     15.27580  eV     1   --> B_2  D_4  S_4  
     e( 16 - 16) =     15.29266  eV     1   --> A_1  D_1  S_1  

 **************************************************************************

 **************************************************************************

                    xk=(   0.53333,   0.00000,   0.00000  )

     Band symmetry, C_2v (mm2)  point group:

     e(  1 -  1) =    -16.41227  eV     1   --> A_1  D_1  S_1  
     e(  2 -  2) =    -12.73415  eV     1   --> B_2  D_4  S_4  
     e(  3 -  3) =    -11.15053  eV     1   --> A_1  D_1  S_1  
     e(  4 -  4) =     -3.88034  eV     1   --> B_1  D_3  S_3  
     e(  5 -  5) =      0.46933  eV     1   --> A_2  D_2  S_2  
     e(  6 -  6) =      8.03561  eV     1   --> A_1  D_1  S_1  
     e(  7 -  7) =      8.50766  eV     1   --> B_1  D_3  S_3  
     e(  8 -  8) =      9.03377  eV     1   --> A_1  D_1  S_1  
     e(  9 -  9) =      9.98811  eV     1   --> B_1  D_3  S_3  
     e( 10 - 10) =     10.93143  eV     1   --> A_1  D_1  S_1  
     e( 11 - 11) =     11.09630  eV     1   --> B_2  D_4  S_4  
     e( 12 - 12) =     11.77707  eV     1   --> A_1  D_1  S_1  
     e( 13 - 13) =     11.85575  eV     1   --> B_1  D_3  S_3  
     e( 14 - 14) =     14.92952  eV     1   --> B_2  D_4  S_4  
     e( 15 - 15) =     14.99628  eV     1   --> A_1  D_1  S_1  
     e( 16 - 16) =     15.09706  eV     1   --> B_1  D_3  S_3  

 **************************************************************************

 **************************************************************************

                    xk=(   0.55000,   0.00000,   0.00000  )

     Band symmetry, C_2v (mm2)  point group:

     e(  1 -  1) =    -16.13017  eV     1   --> A_1  D_1  S_1  
     e(  2 -  2) =    -12.95989  eV     1   --> B_2  D_4  S_4  
     e(  3 -  3) =    -11.36172  eV     1   --> A_1  D_1  S_1  
     e(  4 -  4) =     -3.59117  eV     1   --> B_1  D_3  S_3  
     e(  5 -  5) =      0.16302  eV     1   --> A_2  D_2  S_2  
     e(  6 -  6) =      8.45892  eV     1   --> A_1  D_1  S_1  
     e(  7 -  7) =      8.75891  eV     1   --> B_1  D_3  S_3  
     e(  8 -  8) =      9.46500  eV     1   --> A_1  D_1  S_1  
     e(  9 -  9) =     10.14932  eV     1   --> B_1  D_3  S_3  
     e( 10 - 10) =     11.14351  eV     1   --> A_1  D_1  S_1  
     e( 11 - 11) =     11.16794  eV     1   --> B_2  D_4  S_4  
     e( 12 - 12) =     12.09957  eV     1   --> B_1  D_3  S_3  
     e( 13 - 13) =     12.18065  eV     1   --> A_1  D_1  S_1  
     e( 14 - 14) =     14.59563  eV     1   --> B_2  D_4  S_4  
     e( 15 - 15) =     14.65869  eV     1   --> A_1  D_1  S_1  
     e( 16 - 16) =     14.99117  eV     1   --> A_2  D_2  S_2  

 **************************************************************************

 **************************************************************************

                    xk=(   0.56667,   0.00000,   0.00000  )

     Band symmetry, C_2v (mm2)  point group:

     e(  1 -  1) =    -15.84578  eV     1   --> A_1  D_1  S_1  
     e(  2 -  2) =    -13.17805  eV     1   --> B_2  D_4  S_4  
     e(  3 -  3) =    -11.56193  eV     1   --> A_1  D_1  S_1  
     e(  4 -  4) =     -3.30366  eV     1   --> B_1  D_3  S_3  
     e(  5 -  5) =     -0.13429  eV     1   --> A_2  D_2  S_2  
     e(  6 -  6) =      8.88995  eV     1   --> A_1  D_1  S_1  
     e(  7 -  7) =      8.91612  eV     1   --> B_1  D_3  S_3  
     e(  8 -  8) =      9.90656  eV     1   --> A_1  D_1  S_1  
     e(  9 -  9) =     10.37167  eV     1   --> B_1  D_3  S_3  
     e( 10 - 10) =     11.22657  eV     1   --> B_2  D_4  S_4  
     e( 11 - 11) =     11.33207  eV     1   --> A_1  D_1  S_1  
     e( 12 - 12) =     12.40978  eV     1   --> B_1  D_3  S_3  
     e( 13 - 13) =     12.58750  eV     1   --> A_1  D_1  S_1  
     e( 14 - 14) =     14.27582  eV     1   --> B_2  D_4  S_4  
     e( 15 - 15) =     14.33741  eV     1   --> A_1  D_1  S_1  
     e( 16 - 16) =     14.63384  eV     1   --> A_2  D_2  S_2  

 **************************************************************************

 **************************************************************************

                    xk=(   0.58333,   0.00000,   0.00000  )

     Band symmetry, C_2v (mm2)  point group:

     e(  1 -  1) =    -15.56129  eV     1   --> A_1  D_1  S_1  
     e(  2 -  2) =    -13.38852  eV     1   --> B_2  D_4  S_4  
     e(  3 -  3) =    -11.74899  eV     1   --> A_1  D_1  S_1  
     e(  4 -  4) =     -3.01943  eV     1   --> B_1  D_3  S_3  
     e(  5 -  5) =     -0.42228  eV     1   --> A_2  D_2  S_2  
     e(  6 -  6) =      8.97904  eV     1   --> B_1  D_3  S_3  
     e(  7 -  7) =      9.32582  eV     1   --> A_1  D_1  S_1  
     e(  8 -  8) =     10.35668  eV     1   --> A_1  D_1  S_1  
     e(  9 -  9) =     10.67907  eV     1   --> B_1  D_3  S_3  
     e( 10 - 10) =     11.26852  eV     1   --> B_2  D_4  S_4  
     e( 11 - 11) =     11.48989  eV     1   --> A_1  D_1  S_1  
     e( 12 - 12) =     12.76166  eV     1   --> B_1  D_3  S_3  
     e( 13 - 13) =     12.98747  eV     1   --> A_1  D_1  S_1  
     e( 14 - 14) =     13.97108  eV     1   --> B_2  D_4  S_4  
     e( 15 - 15) =     14.03799  eV     1   --> A_1  D_1  S_1  
     e( 16 - 16) =     14.28953  eV     1   --> A_2  D_2  S_2  

 **************************************************************************

 **************************************************************************

                    xk=(   0.60000,   0.00000,   0.00000  )

     Band symmetry, C_2v (mm2)  point group:

     e(  1 -  1) =    -15.27986  eV     1   --> A_1  D_1  S_1  
     e(  2 -  2) =    -13.59120  eV     1   --> B_2  D_4  S_4  
     e(  3 -  3) =    -11.91981  eV     1   --> A_1  D_1  S_1  
     e(  4 -  4) =     -2.74027  eV     1   --> B_1  D_3  S_3  
     e(  5 -  5) =     -0.70066  eV     1   --> A_2  D_2  S_2  
     e(  6 -  6) =      8.97985  eV     1   --> B_1  D_3  S_3  
     e(  7 -  7) =      9.76155  eV     1   --> A_1  D_1  S_1  
     e(  8 -  8) =     10.81154  eV     1   --> A_1  D_1  S_1  
     e(  9 -  9) =     11.05589  eV     1   --> B_1  D_3  S_3  
     e( 10 - 10) =     11.28990  eV     1   --> B_2  D_4  S_4  
     e( 11 - 11) =     11.61097  eV     1   --> A_1  D_1  S_1  
     e( 12 - 12) =     13.12896  eV     1   --> B_1  D_3  S_3  
     e( 13 - 13) =     13.35031  eV     1   --> A_1  D_1  S_1  
     e( 14 - 14) =     13.68175  eV     1   --> B_2  D_4  S_4  
     e( 15 - 15) =     13.77493  eV     1   --> A_1  D_1  S_1  
     e( 16 - 16) =     13.95833  eV     1   --> A_2  D_2  S_2  

 **************************************************************************

 **************************************************************************

                    xk=(   0.61667,   0.00000,   0.00000  )

     Band symmetry, C_2v (mm2)  point group:

     e(  1 -  1) =    -15.00625  eV     1   --> A_1  D_1  S_1  
     e(  2 -  2) =    -13.78602  eV     1   --> B_2  D_4  S_4  
     e(  3 -  3) =    -12.06978  eV     1   --> A_1  D_1  S_1  
     e(  4 -  4) =     -2.46812  eV     1   --> B_1  D_3  S_3  
     e(  5 -  5) =     -0.96917  eV     1   --> A_2  D_2  S_2  
     e(  6 -  6) =      8.95233  eV     1   --> B_1  D_3  S_3  
     e(  7 -  7) =     10.18786  eV     1   --> A_1  D_1  S_1  
     e(  8 -  8) =     11.25758  eV     1   --> A_1  D_1  S_1  
     e(  9 -  9) =     11.28665  eV     1   --> B_2  D_4  S_4  
     e( 10 - 10) =     11.47802  eV     1   --> B_1  D_3  S_3  
     e( 11 - 11) =     11.69946  eV     1   --> A_1  D_1  S_1  
     e( 12 - 12) =     13.40749  eV     1   --> B_2  D_4  S_4  
     e( 13 - 13) =     13.42830  eV     1   --> A_1  D_1  S_1  
     e( 14 - 14) =     13.45799  eV     1   --> B_1  D_3  S_3  
     e( 15 - 15) =     13.64032  eV     1   --> A_2  D_2  S_2  
     e( 16 - 16) =     13.75706  eV     1   --> A_1  D_1  S_1  

 **************************************************************************

 **************************************************************************

                    xk=(   0.63333,   0.00000,   0.00000  )

     Band symmetry, C_2v (mm2)  point group:

     e(  1 -  1) =    -14.74770  eV     1   --> A_1  D_1  S_1  
     e(  2 -  2) =    -13.97291  eV     1   --> B_2  D_4  S_4  
     e(  3 -  3) =    -12.19192  eV     1   --> A_1  D_1  S_1  
     e(  4 -  4) =     -2.20490  eV     1   --> B_1  D_3  S_3  
     e(  5 -  5) =     -1.22760  eV     1   --> A_2  D_2  S_2  
     e(  6 -  6) =      8.91902  eV     1   --> B_1  D_3  S_3  
     e(  7 -  7) =     10.58622  eV     1   --> A_1  D_1  S_1  
     e(  8 -  8) =     11.25597  eV     1   --> B_2  D_4  S_4  
     e(  9 -  9) =     11.58302  eV     1   --> A_1  D_1  S_1  
     e( 10 - 10) =     11.86313  eV     1   --> A_1  D_1  S_1  
     e( 11 - 11) =     11.92646  eV     1   --> B_1  D_3  S_3  
     e( 12 - 12) =     13.14732  eV     1   --> B_2  D_4  S_4  
     e( 13 - 13) =     13.21148  eV     1   --> A_1  D_1  S_1  
     e( 14 - 14) =     13.33557  eV     1   --> A_2  D_2  S_2  
     e( 15 - 15) =     13.58151  eV     1   --> B_1  D_3  S_3  
     e( 16 - 16) =     13.92532  eV     1   --> A_1  D_1  S_1  

 **************************************************************************

 **************************************************************************

                    xk=(   0.65000,   0.00000,   0.00000  )

     Band symmetry, C_2v (mm2)  point group:

     e(  1 -  1) =    -14.51496  eV     1   --> A_1  D_1  S_1  
     e(  2 -  2) =    -14.15180  eV     1   --> B_2  D_4  S_4  
     e(  3 -  3) =    -12.27579  eV     1   --> A_1  D_1  S_1  
     e(  4 -  4) =     -1.95265  eV     1   --> B_1  D_3  S_3  
     e(  5 -  5) =     -1.47570  eV     1   --> A_2  D_2  S_2  
     e(  6 -  6) =      8.89347  eV     1   --> B_1  D_3  S_3  
     e(  7 -  7) =     10.91738  eV     1   --> A_1  D_1  S_1  
     e(  8 -  8) =     11.19651  eV     1   --> B_2  D_4  S_4  
     e(  9 -  9) =     11.63484  eV     1   --> A_1  D_1  S_1  
     e( 10 - 10) =     12.26160  eV     1   --> A_1  D_1  S_1  
     e( 11 - 11) =     12.38021  eV     1   --> B_1  D_3  S_3  
     e( 12 - 12) =     12.89975  eV     1   --> B_2  D_4  S_4  
     e( 13 - 13) =     12.98936  eV     1   --> A_1  D_1  S_1  
     e( 14 - 14) =     13.04414  eV     1   --> A_2  D_2  S_2  
     e( 15 - 15) =     13.46179  eV     1   --> B_1  D_3  S_3  
     e( 16 - 16) =     13.98968  eV     1   --> A_1  D_1  S_1  

 **************************************************************************

 **************************************************************************

                    xk=(   0.66667,   0.00000,   0.00000  )

     point group D_3h (-62m)
     there are  6 classes
     the character table:

       E     2C3   3C2   s_h   2S3   3s_v 
A'_1   1.00  1.00  1.00  1.00  1.00  1.00
A'_2   1.00  1.00 -1.00  1.00  1.00 -1.00
E'     2.00 -1.00  0.00  2.00 -1.00  0.00
A''1   1.00  1.00  1.00 -1.00 -1.00 -1.00
A''2   1.00  1.00 -1.00 -1.00 -1.00  1.00
E''    2.00 -1.00  0.00 -2.00  1.00  0.00

     the symmetry operations in each class and the name of the first element:

     E        1
                                                                 
     2C3      3    4
                                                                 
     3C2      2    5    6
                                                                 
     s_h      7
                                                                 
     2S3      9   10
                                                                 
     3s_v     8   12   11
                                                                 

     Band symmetry, D_3h (-62m) point group:

     e(  1 -  2) =    -14.32261  eV     2   --> E'             
     e(  3 -  3) =    -12.30723  eV     1   --> A'_1           
     e(  4 -  5) =     -1.71330  eV     2   --> E''            
     e(  6 -  6) =      8.88373  eV     1   --> A''2           
     e(  7 -  8) =     11.10992  eV     2   --> E'             
     e(  9 -  9) =     11.63421  eV     1   --> A'_1           
     e( 10 - 11) =     12.66330  eV     2   --> E'             
     e( 12 - 13) =     12.76606  eV     2   --> E''            
     e( 14 - 14) =     12.81467  eV     1   --> A'_1           
     e( 15 - 15) =     13.35119  eV     1   --> A''2           
     e( 16 - 16) =     14.05091  eV     1   -->   ?

 **************************************************************************

 **************************************************************************

                    xk=(   0.65833,   0.01443,   0.00000  )

     point group C_2v (mm2) 
     there are  4 classes
     the character table:

       E     C2    s_v   s_v' 
A_1    1.00  1.00  1.00  1.00
A_2    1.00  1.00 -1.00 -1.00
B_1    1.00 -1.00  1.00 -1.00
B_2    1.00 -1.00 -1.00  1.00

     the symmetry operations in each class and the name of the first element:

     E        1
                                                                 
     C2       2
                                                                 
     s_v      4
                                                                 
     s_v'     3
                                                                 

     Band symmetry, C_2v (mm2)  point group:

     e(  1 -  1) =    -14.48532  eV     1   --> B_2  D_4  S_4  
     e(  2 -  2) =    -14.18598  eV     1   --> A_1  D_1  S_1  
     e(  3 -  3) =    -12.27144  eV     1   --> A_1  D_1  S_1  
     e(  4 -  4) =     -1.94021  eV     1   --> A_2  D_2  S_2  
     e(  5 -  5) =     -1.48866  eV     1   --> B_1  D_3  S_3  
     e(  6 -  6) =      8.89465  eV     1   --> B_1  D_3  S_3  
     e(  7 -  7) =     11.00006  eV     1   --> B_2  D_4  S_4  
     e(  8 -  8) =     11.12242  eV     1   --> A_1  D_1  S_1  
     e(  9 -  9) =     11.61645  eV     1   --> A_1  D_1  S_1  
     e( 10 - 10) =     12.43678  eV     1   --> B_2  D_4  S_4  
     e( 11 - 11) =     12.50138  eV     1   --> A_2  D_2  S_2  
     e( 12 - 12) =     12.54576  eV     1   --> A_1  D_1  S_1  
     e( 13 - 13) =     12.82045  eV     1   --> B_1  D_3  S_3  
     e( 14 - 14) =     13.16617  eV     1   --> A_1  D_1  S_1  
     e( 15 - 15) =     13.56864  eV     1   --> B_1  D_3  S_3  
     e( 16 - 16) =     13.96592  eV     1   --> B_2  D_4  S_4  

 **************************************************************************

 **************************************************************************

                    xk=(   0.65000,   0.02887,   0.00000  )

     Band symmetry, C_2v (mm2)  point group:

     e(  1 -  1) =    -14.63985  eV     1   --> B_2  D_4  S_4  
     e(  2 -  2) =    -14.11318  eV     1   --> A_1  D_1  S_1  
     e(  3 -  3) =    -12.16094  eV     1   --> A_1  D_1  S_1  
     e(  4 -  4) =     -2.15628  eV     1   --> A_2  D_2  S_2  
     e(  5 -  5) =     -1.28032  eV     1   --> B_1  D_3  S_3  
     e(  6 -  6) =      8.92892  eV     1   --> B_1  D_3  S_3  
     e(  7 -  7) =     10.87235  eV     1   --> B_2  D_4  S_4  
     e(  8 -  8) =     11.02088  eV     1   --> A_1  D_1  S_1  
     e(  9 -  9) =     11.50564  eV     1   --> A_1  D_1  S_1  
     e( 10 - 10) =     12.21956  eV     1   --> B_2  D_4  S_4  
     e( 11 - 11) =     12.25014  eV     1   --> A_2  D_2  S_2  
     e( 12 - 12) =     12.33675  eV     1   --> A_1  D_1  S_1  
     e( 13 - 13) =     12.65722  eV     1   --> B_1  D_3  S_3  
     e( 14 - 14) =     13.62159  eV     1   --> A_1  D_1  S_1  
     e( 15 - 15) =     13.90034  eV     1   --> B_2  D_4  S_4  
     e( 16 - 16) =     13.99333  eV     1   --> B_1  D_3  S_3  

 **************************************************************************

 **************************************************************************

                    xk=(   0.64167,   0.04330,   0.00000  )

     Band symmetry, C_2v (mm2)  point group:

     e(  1 -  1) =    -14.78621  eV     1   --> B_2  D_4  S_4  
     e(  2 -  2) =    -14.09879  eV     1   --> A_1  D_1  S_1  
     e(  3 -  3) =    -11.98201  eV     1   --> A_1  D_1  S_1  
     e(  4 -  4) =     -2.36137  eV     1   --> A_2  D_2  S_2  
     e(  5 -  5) =     -1.08956  eV     1   --> B_1  D_3  S_3  
     e(  6 -  6) =      8.98728  eV     1   --> B_1  D_3  S_3  
     e(  7 -  7) =     10.73259  eV     1   --> B_2  D_4  S_4  
     e(  8 -  8) =     10.86498  eV     1   --> A_1  D_1  S_1  
     e(  9 -  9) =     11.28314  eV     1   --> A_1  D_1  S_1  
     e( 10 - 10) =     12.01154  eV     1   --> B_2  D_4  S_4  
     e( 11 - 11) =     12.01236  eV     1   --> A_2  D_2  S_2  
     e( 12 - 12) =     12.12313  eV     1   --> A_1  D_1  S_1  
     e( 13 - 13) =     12.46650  eV     1   --> B_1  D_3  S_3  
     e( 14 - 14) =     13.84472  eV     1   --> B_2  D_4  S_4  
     e( 15 - 15) =     14.09796  eV     1   --> A_1  D_1  S_1  
     e( 16 - 16) =     14.16095  eV     1   --> A_2  D_2  S_2  

 **************************************************************************

 **************************************************************************

                    xk=(   0.63333,   0.05774,   0.00000  )

     Band symmetry, C_2v (mm2)  point group:

     e(  1 -  1) =    -14.92434  eV     1   --> B_2  D_4  S_4  
     e(  2 -  2) =    -14.12781  eV     1   --> A_1  D_1  S_1  
     e(  3 -  3) =    -11.75057  eV     1   --> A_1  D_1  S_1  
     e(  4 -  4) =     -2.55533  eV     1   --> A_2  D_2  S_2  
     e(  5 -  5) =     -0.91723  eV     1   --> B_1  D_3  S_3  
     e(  6 -  6) =      9.06903  eV     1   --> B_1  D_3  S_3  
     e(  7 -  7) =     10.58620  eV     1   --> B_2  D_4  S_4  
     e(  8 -  8) =     10.66409  eV     1   --> A_1  D_1  S_1  
     e(  9 -  9) =     10.99445  eV     1   --> A_1  D_1  S_1  
     e( 10 - 10) =     11.78806  eV     1   --> A_2  D_2  S_2  
     e( 11 - 11) =     11.81299  eV     1   --> B_2  D_4  S_4  
     e( 12 - 12) =     11.91423  eV     1   --> A_1  D_1  S_1  
     e( 13 - 13) =     12.28117  eV     1   --> B_1  D_3  S_3  
     e( 14 - 14) =     13.79064  eV     1   --> B_2  D_4  S_4  
     e( 15 - 15) =     13.93913  eV     1   --> A_2  D_2  S_2  
     e( 16 - 16) =     14.28413  eV     1   --> A_1  D_1  S_1  

 **************************************************************************

 **************************************************************************

                    xk=(   0.62500,   0.07217,   0.00000  )

     Band symmetry, C_2v (mm2)  point group:

     e(  1 -  1) =    -15.05421  eV     1   --> B_2  D_4  S_4  
     e(  2 -  2) =    -14.18440  eV     1   --> A_1  D_1  S_1  
     e(  3 -  3) =    -11.48359  eV     1   --> A_1  D_1  S_1  
     e(  4 -  4) =     -2.73806  eV     1   --> A_2  D_2  S_2  
     e(  5 -  5) =     -0.76373  eV     1   --> B_1  D_3  S_3  
     e(  6 -  6) =      9.17171  eV     1   --> B_1  D_3  S_3  
     e(  7 -  7) =     10.38089  eV     1   --> A_1  D_1  S_1  
     e(  8 -  8) =     10.43762  eV     1   --> B_2  D_4  S_4  
     e(  9 -  9) =     10.72122  eV     1   --> A_1  D_1  S_1  
     e( 10 - 10) =     11.57728  eV     1   --> A_2  D_2  S_2  
     e( 11 - 11) =     11.62434  eV     1   --> B_2  D_4  S_4  
     e( 12 - 12) =     11.71579  eV     1   --> A_1  D_1  S_1  
     e( 13 - 13) =     12.10992  eV     1   --> B_1  D_3  S_3  
     e( 14 - 14) =     13.73060  eV     1   --> A_2  D_2  S_2  
     e( 15 - 15) =     13.73177  eV     1   --> B_2  D_4  S_4  
     e( 16 - 16) =     14.16573  eV     1   --> A_1  D_1  S_1  

 **************************************************************************

 **************************************************************************

                    xk=(   0.61667,   0.08660,   0.00000  )

     Band symmetry, C_2v (mm2)  point group:

     e(  1 -  1) =    -15.17580  eV     1   --> B_2  D_4  S_4  
     e(  2 -  2) =    -14.25650  eV     1   --> A_1  D_1  S_1  
     e(  3 -  3) =    -11.19449  eV     1   --> A_1  D_1  S_1  
     e(  4 -  4) =     -2.90946  eV     1   --> A_2  D_2  S_2  
     e(  5 -  5) =     -0.62895  eV     1   --> B_1  D_3  S_3  
     e(  6 -  6) =      9.29105  eV     1   --> B_1  D_3  S_3  
     e(  7 -  7) =      9.99926  eV     1   --> A_1  D_1  S_1  
     e(  8 -  8) =     10.29044  eV     1   --> B_2  D_4  S_4  
     e(  9 -  9) =     10.51053  eV     1   --> A_1  D_1  S_1  
     e( 10 - 10) =     11.38002  eV     1   --> A_2  D_2  S_2  
     e( 11 - 11) =     11.44608  eV     1   --> B_2  D_4  S_4  
     e( 12 - 12) =     11.52964  eV     1   --> A_1  D_1  S_1  
     e( 13 - 13) =     11.95721  eV     1   --> B_1  D_3  S_3  
     e( 14 - 14) =     13.53540  eV     1   --> A_2  D_2  S_2  
     e( 15 - 15) =     13.66503  eV     1   --> B_2  D_4  S_4  
     e( 16 - 16) =     14.02995  eV     1   --> A_1  D_1  S_1  

 **************************************************************************

 **************************************************************************

                    xk=(   0.60833,   0.10104,   0.00000  )

     Band symmetry, C_2v (mm2)  point group:

     e(  1 -  1) =    -15.28909  eV     1   --> B_2  D_4  S_4  
     e(  2 -  2) =    -14.33600  eV     1   --> A_1  D_1  S_1  
     e(  3 -  3) =    -10.89294  eV     1   --> A_1  D_1  S_1  
     e(  4 -  4) =     -3.06940  eV     1   --> A_2  D_2  S_2  
     e(  5 -  5) =     -0.51234  eV     1   --> B_1  D_3  S_3  
     e(  6 -  6) =      9.42081  eV     1   --> B_1  D_3  S_3  
     e(  7 -  7) =      9.56801  eV     1   --> A_1  D_1  S_1  
     e(  8 -  8) =     10.14739  eV     1   --> B_2  D_4  S_4  
     e(  9 -  9) =     10.33566  eV     1   --> A_1  D_1  S_1  
     e( 10 - 10) =     11.19631  eV     1   --> A_2  D_2  S_2  
     e( 11 - 11) =     11.27868  eV     1   --> B_2  D_4  S_4  
     e( 12 - 12) =     11.35603  eV     1   --> A_1  D_1  S_1  
     e( 13 - 13) =     11.82671  eV     1   --> B_1  D_3  S_3  
     e( 14 - 14) =     13.35356  eV     1   --> A_2  D_2  S_2  
     e( 15 - 15) =     13.59029  eV     1   --> B_2  D_4  S_4  
     e( 16 - 16) =     13.89387  eV     1   --> A_1  D_1  S_1  

 **************************************************************************

 **************************************************************************

                    xk=(   0.60000,   0.11547,   0.00000  )

     Band symmetry, C_2v (mm2)  point group:

     e(  1 -  1) =    -15.39405  eV     1   --> B_2  D_4  S_4  
     e(  2 -  2) =    -14.41772  eV     1   --> A_1  D_1  S_1  
     e(  3 -  3) =    -10.58598  eV     1   --> A_1  D_1  S_1  
     e(  4 -  4) =     -3.21782  eV     1   --> A_2  D_2  S_2  
     e(  5 -  5) =     -0.41294  eV     1   --> B_1  D_3  S_3  
     e(  6 -  6) =      9.11970  eV     1   --> A_1  D_1  S_1  
     e(  7 -  7) =      9.55279  eV     1   --> B_1  D_3  S_3  
     e(  8 -  8) =     10.01049  eV     1   --> B_2  D_4  S_4  
     e(  9 -  9) =     10.17893  eV     1   --> A_1  D_1  S_1  
     e( 10 - 10) =     11.02616  eV     1   --> A_2  D_2  S_2  
     e( 11 - 11) =     11.12253  eV     1   --> B_2  D_4  S_4  
     e( 12 - 12) =     11.19493  eV     1   --> A_1  D_1  S_1  
     e( 13 - 13) =     11.72201  eV     1   --> B_1  D_3  S_3  
     e( 14 - 14) =     13.18509  eV     1   --> A_2  D_2  S_2  
     e( 15 - 15) =     13.50938  eV     1   --> B_2  D_4  S_4  
     e( 16 - 16) =     13.76199  eV     1   --> A_1  D_1  S_1  

 **************************************************************************

 **************************************************************************

                    xk=(   0.59167,   0.12990,   0.00000  )

     Band symmetry, C_2v (mm2)  point group:

     e(  1 -  1) =    -15.49067  eV     1   --> B_2  D_4  S_4  
     e(  2 -  2) =    -14.49829  eV     1   --> A_1  D_1  S_1  
     e(  3 -  3) =    -10.27917  eV     1   --> A_1  D_1  S_1  
     e(  4 -  4) =     -3.35464  eV     1   --> A_2  D_2  S_2  
     e(  5 -  5) =     -0.32945  eV     1   --> B_1  D_3  S_3  
     e(  6 -  6) =      8.67081  eV     1   --> A_1  D_1  S_1  
     e(  7 -  7) =      9.67725  eV     1   --> B_1  D_3  S_3  
     e(  8 -  8) =      9.88128  eV     1   --> B_2  D_4  S_4  
     e(  9 -  9) =     10.03553  eV     1   --> A_1  D_1  S_1  
     e( 10 - 10) =     10.86959  eV     1   --> A_2  D_2  S_2  
     e( 11 - 11) =     10.97797  eV     1   --> B_2  D_4  S_4  
     e( 12 - 12) =     11.04635  eV     1   --> A_1  D_1  S_1  
     e( 13 - 13) =     11.64654  eV     1   --> B_1  D_3  S_3  
     e( 14 - 14) =     13.03003  eV     1   --> A_2  D_2  S_2  
     e( 15 - 15) =     13.42513  eV     1   --> B_2  D_4  S_4  
     e( 16 - 16) =     13.63662  eV     1   --> A_1  D_1  S_1  

 **************************************************************************

 **************************************************************************

                    xk=(   0.58333,   0.14434,   0.00000  )

     Band symmetry, C_2v (mm2)  point group:

     e(  1 -  1) =    -15.57893  eV     1   --> B_2  D_4  S_4  
     e(  2 -  2) =    -14.57550  eV     1   --> A_1  D_1  S_1  
     e(  3 -  3) =     -9.97718  eV     1   --> A_1  D_1  S_1  
     e(  4 -  4) =     -3.47977  eV     1   --> A_2  D_2  S_2  
     e(  5 -  5) =     -0.26037  eV     1   --> B_1  D_3  S_3  
     e(  6 -  6) =      8.23110  eV     1   --> A_1  D_1  S_1  
     e(  7 -  7) =      9.76094  eV     1   --> B_2  D_4  S_4  
     e(  8 -  8) =      9.78439  eV     1   --> B_1  D_3  S_3  
     e(  9 -  9) =      9.90429  eV     1   --> A_1  D_1  S_1  
     e( 10 - 10) =     10.72659  eV     1   --> A_2  D_2  S_2  
     e( 11 - 11) =     10.84530  eV     1   --> B_2  D_4  S_4  
     e( 12 - 12) =     10.91032  eV     1   --> A_1  D_1  S_1  
     e( 13 - 13) =     11.60256  eV     1   --> B_1  D_3  S_3  
     e( 14 - 14) =     12.88840  eV     1   --> A_2  D_2  S_2  
     e( 15 - 15) =     13.34055  eV     1   --> B_2  D_4  S_4  
     e( 16 - 16) =     13.51929  eV     1   --> A_1  D_1  S_1  

 **************************************************************************

 **************************************************************************

                    xk=(   0.57500,   0.15877,   0.00000  )

     Band symmetry, C_2v (mm2)  point group:

     e(  1 -  1) =    -15.65882  eV     1   --> B_2  D_4  S_4  
     e(  2 -  2) =    -14.64784  eV     1   --> A_1  D_1  S_1  
     e(  3 -  3) =     -9.68434  eV     1   --> A_1  D_1  S_1  
     e(  4 -  4) =     -3.59317  eV     1   --> A_2  D_2  S_2  
     e(  5 -  5) =     -0.20404  eV     1   --> B_1  D_3  S_3  
     e(  6 -  6) =      7.80802  eV     1   --> A_1  D_1  S_1  
     e(  7 -  7) =      9.65034  eV     1   --> B_2  D_4  S_4  
     e(  8 -  8) =      9.78501  eV     1   --> A_1  D_1  S_1  
     e(  9 -  9) =      9.86660  eV     1   --> B_1  D_3  S_3  
     e( 10 - 10) =     10.59719  eV     1   --> A_2  D_2  S_2  
     e( 11 - 11) =     10.72475  eV     1   --> B_2  D_4  S_4  
     e( 12 - 12) =     10.78695  eV     1   --> A_1  D_1  S_1  
     e( 13 - 13) =     11.58930  eV     1   --> B_1  D_3  S_3  
     e( 14 - 14) =     12.76020  eV     1   --> A_2  D_2  S_2  
     e( 15 - 15) =     13.25829  eV     1   --> B_2  D_4  S_4  
     e( 16 - 16) =     13.41107  eV     1   --> A_1  D_1  S_1  

 **************************************************************************

 **************************************************************************

                    xk=(   0.56667,   0.17321,   0.00000  )

     Band symmetry, C_2v (mm2)  point group:

     e(  1 -  1) =    -15.73032  eV     1   --> B_2  D_4  S_4  
     e(  2 -  2) =    -14.71426  eV     1   --> A_1  D_1  S_1  
     e(  3 -  3) =     -9.40492  eV     1   --> A_1  D_1  S_1  
     e(  4 -  4) =     -3.69476  eV     1   --> A_2  D_2  S_2  
     e(  5 -  5) =     -0.15882  eV     1   --> B_1  D_3  S_3  
     e(  6 -  6) =      7.40834  eV     1   --> A_1  D_1  S_1  
     e(  7 -  7) =      9.55013  eV     1   --> B_2  D_4  S_4  
     e(  8 -  8) =      9.67779  eV     1   --> A_1  D_1  S_1  
     e(  9 -  9) =      9.92091  eV     1   --> B_1  D_3  S_3  
     e( 10 - 10) =     10.48140  eV     1   --> A_2  D_2  S_2  
     e( 11 - 11) =     10.61649  eV     1   --> B_2  D_4  S_4  
     e( 12 - 12) =     10.67631  eV     1   --> A_1  D_1  S_1  
     e( 13 - 13) =     11.60153  eV     1   --> B_1  D_3  S_3  
     e( 14 - 14) =     12.64547  eV     1   --> A_2  D_2  S_2  
     e( 15 - 15) =     13.18051  eV     1   --> B_2  D_4  S_4  
     e( 16 - 16) =     13.31275  eV     1   --> A_1  D_1  S_1  

 **************************************************************************

 **************************************************************************

                    xk=(   0.55833,   0.18764,   0.00000  )

     Band symmetry, C_2v (mm2)  point group:

     e(  1 -  1) =    -15.79344  eV     1   --> B_2  D_4  S_4  
     e(  2 -  2) =    -14.77405  eV     1   --> A_1  D_1  S_1  
     e(  3 -  3) =     -9.14322  eV     1   --> A_1  D_1  S_1  
     e(  4 -  4) =     -3.78452  eV     1   --> A_2  D_2  S_2  
     e(  5 -  5) =     -0.12311  eV     1   --> B_1  D_3  S_3  
     e(  6 -  6) =      7.03778  eV     1   --> A_1  D_1  S_1  
     e(  7 -  7) =      9.46082  eV     1   --> B_2  D_4  S_4  
     e(  8 -  8) =      9.58277  eV     1   --> A_1  D_1  S_1  
     e(  9 -  9) =      9.94968  eV     1   --> B_1  D_3  S_3  
     e( 10 - 10) =     10.37921  eV     1   --> A_2  D_2  S_2  
     e( 11 - 11) =     10.52069  eV     1   --> B_2  D_4  S_4  
     e( 12 - 12) =     10.57850  eV     1   --> A_1  D_1  S_1  
     e( 13 - 13) =     11.63009  eV     1   --> B_1  D_3  S_3  
     e( 14 - 14) =     12.54420  eV     1   --> A_2  D_2  S_2  
     e( 15 - 15) =     13.10894  eV     1   --> B_2  D_4  S_4  
     e( 16 - 16) =     13.22496  eV     1   --> A_1  D_1  S_1  

 **************************************************************************

 **************************************************************************

                    xk=(   0.55000,   0.20207,   0.00000  )

     Band symmetry, C_2v (mm2)  point group:

     e(  1 -  1) =    -15.84815  eV     1   --> B_2  D_4  S_4  
     e(  2 -  2) =    -14.82665  eV     1   --> A_1  D_1  S_1  
     e(  3 -  3) =     -8.90363  eV     1   --> A_1  D_1  S_1  
     e(  4 -  4) =     -3.86240  eV     1   --> A_2  D_2  S_2  
     e(  5 -  5) =     -0.09536  eV     1   --> B_1  D_3  S_3  
     e(  6 -  6) =      6.70203  eV     1   --> A_1  D_1  S_1  
     e(  7 -  7) =      9.38280  eV     1   --> B_2  D_4  S_4  
     e(  8 -  8) =      9.50011  eV     1   --> A_1  D_1  S_1  
     e(  9 -  9) =      9.95889  eV     1   --> B_1  D_3  S_3  
     e( 10 - 10) =     10.29063  eV     1   --> A_2  D_2  S_2  
     e( 11 - 11) =     10.43745  eV     1   --> B_2  D_4  S_4  
     e( 12 - 12) =     10.49358  eV     1   --> A_1  D_1  S_1  
     e( 13 - 13) =     11.66499  eV     1   --> B_1  D_3  S_3  
     e( 14 - 14) =     12.45641  eV     1   --> A_2  D_2  S_2  
     e( 15 - 15) =     13.04488  eV     1   --> B_2  D_4  S_4  
     e( 16 - 16) =     13.14813  eV     1   --> A_1  D_1  S_1  

 **************************************************************************

 **************************************************************************

                    xk=(   0.54167,   0.21651,   0.00000  )

     Band symmetry, C_2v (mm2)  point group:

     e(  1 -  1) =    -15.89446  eV     1   --> B_2  D_4  S_4  
     e(  2 -  2) =    -14.87169  eV     1   --> A_1  D_1  S_1  
     e(  3 -  3) =     -8.69066  eV     1   --> A_1  D_1  S_1  
     e(  4 -  4) =     -3.92835  eV     1   --> A_2  D_2  S_2  
     e(  5 -  5) =     -0.07424  eV     1   --> B_1  D_3  S_3  
     e(  6 -  6) =      6.40623  eV     1   --> A_1  D_1  S_1  
     e(  7 -  7) =      9.31637  eV     1   --> B_2  D_4  S_4  
     e(  8 -  8) =      9.42995  eV     1   --> A_1  D_1  S_1  
     e(  9 -  9) =      9.95546  eV     1   --> B_1  D_3  S_3  
     e( 10 - 10) =     10.21567  eV     1   --> A_2  D_2  S_2  
     e( 11 - 11) =     10.36688  eV     1   --> B_2  D_4  S_4  
     e( 12 - 12) =     10.42163  eV     1   --> A_1  D_1  S_1  
     e( 13 - 13) =     11.69836  eV     1   --> B_1  D_3  S_3  
     e( 14 - 14) =     12.38212  eV     1   --> A_2  D_2  S_2  
     e( 15 - 15) =     12.98933  eV     1   --> B_2  D_4  S_4  
     e( 16 - 16) =     13.08264  eV     1   --> A_1  D_1  S_1  

 **************************************************************************

 **************************************************************************

                    xk=(   0.53333,   0.23094,   0.00000  )

     Band symmetry, C_2v (mm2)  point group:

     e(  1 -  1) =    -15.93236  eV     1   --> B_2  D_4  S_4  
     e(  2 -  2) =    -14.90887  eV     1   --> A_1  D_1  S_1  
     e(  3 -  3) =     -8.50872  eV     1   --> A_1  D_1  S_1  
     e(  4 -  4) =     -3.98235  eV     1   --> A_2  D_2  S_2  
     e(  5 -  5) =     -0.05859  eV     1   --> B_1  D_3  S_3  
     e(  6 -  6) =      6.15579  eV     1   --> A_1  D_1  S_1  
     e(  7 -  7) =      9.26175  eV     1   --> B_2  D_4  S_4  
     e(  8 -  8) =      9.37241  eV     1   --> A_1  D_1  S_1  
     e(  9 -  9) =      9.94548  eV     1   --> B_1  D_3  S_3  
     e( 10 - 10) =     10.15434  eV     1   --> A_2  D_2  S_2  
     e( 11 - 11) =     10.30905  eV     1   --> B_2  D_4  S_4  
     e( 12 - 12) =     10.36269  eV     1   --> A_1  D_1  S_1  
     e( 13 - 13) =     11.72589  eV     1   --> B_1  D_3  S_3  
     e( 14 - 14) =     12.32132  eV     1   --> A_2  D_2  S_2  
     e( 15 - 15) =     12.94303  eV     1   --> B_2  D_4  S_4  
     e( 16 - 16) =     13.02873  eV     1   --> A_1  D_1  S_1  

 **************************************************************************

 **************************************************************************

                    xk=(   0.52500,   0.24537,   0.00000  )

     Band symmetry, C_2v (mm2)  point group:

     e(  1 -  1) =    -15.96184  eV     1   --> B_2  D_4  S_4  
     e(  2 -  2) =    -14.93797  eV     1   --> A_1  D_1  S_1  
     e(  3 -  3) =     -8.36201  eV     1   --> A_1  D_1  S_1  
     e(  4 -  4) =     -4.02437  eV     1   --> A_2  D_2  S_2  
     e(  5 -  5) =     -0.04743  eV     1   --> B_1  D_3  S_3  
     e(  6 -  6) =      5.95534  eV     1   --> A_1  D_1  S_1  
     e(  7 -  7) =      9.21911  eV     1   --> B_2  D_4  S_4  
     e(  8 -  8) =      9.32757  eV     1   --> A_1  D_1  S_1  
     e(  9 -  9) =      9.93363  eV     1   --> B_1  D_3  S_3  
     e( 10 - 10) =     10.10663  eV     1   --> A_2  D_2  S_2  
     e( 11 - 11) =     10.26401  eV     1   --> B_2  D_4  S_4  
[...]
     e(  5 -  5) =      2.68322  eV     1   --> A_1  D_1  S_1  
     e(  6 -  6) =      3.42704  eV     1   --> B_2  D_4  S_4  
     e(  7 -  7) =      3.65095  eV     1   --> A_1  D_1  S_1  
     e(  8 -  8) =      5.62726  eV     1   --> B_2  D_4  S_4  
     e(  9 -  9) =      6.32369  eV     1   --> A_1  D_1  S_1  
     e( 10 - 10) =      6.46064  eV     1   --> B_2  D_4  S_4  
     e( 11 - 11) =      6.60550  eV     1   --> A_1  D_1  S_1  
     e( 12 - 12) =      9.56006  eV     1   --> B_2  D_4  S_4  
     e( 13 - 13) =     10.60920  eV     1   --> B_1  D_3  S_3  
     e( 14 - 14) =     10.74516  eV     1   --> A_1  D_1  S_1  
     e( 15 - 15) =     12.91087  eV     1   --> A_1  D_1  S_1  
     e( 16 - 16) =     14.75618  eV     1   --> B_2  D_4  S_4  

 **************************************************************************

 **************************************************************************

                    xk=(   0.20000,   0.11547,   0.00000  )

     Band symmetry, C_2v (mm2)  point group:

     e(  1 -  1) =    -20.30558  eV     1   --> A_1  D_1  S_1  
     e(  2 -  2) =     -8.23076  eV     1   --> B_2  D_4  S_4  
     e(  3 -  3) =     -7.87654  eV     1   --> A_1  D_1  S_1  
     e(  4 -  4) =     -6.27477  eV     1   --> B_1  D_3  S_3  
     e(  5 -  5) =      2.45763  eV     1   --> A_1  D_1  S_1  
     e(  6 -  6) =      3.20195  eV     1   --> B_2  D_4  S_4  
     e(  7 -  7) =      3.42535  eV     1   --> A_1  D_1  S_1  
     e(  8 -  8) =      5.41570  eV     1   --> B_2  D_4  S_4  
     e(  9 -  9) =      6.17591  eV     1   --> A_1  D_1  S_1  
     e( 10 - 10) =      6.58525  eV     1   --> A_1  D_1  S_1  
     e( 11 - 11) =      6.87148  eV     1   --> B_2  D_4  S_4  
     e( 12 - 12) =      9.34578  eV     1   --> B_2  D_4  S_4  
     e( 13 - 13) =     10.09677  eV     1   --> B_1  D_3  S_3  
     e( 14 - 14) =     10.52528  eV     1   --> A_1  D_1  S_1  
     e( 15 - 15) =     12.63422  eV     1   --> A_1  D_1  S_1  
     e( 16 - 16) =     14.58065  eV     1   --> B_2  D_4  S_4  

 **************************************************************************

 **************************************************************************

                    xk=(   0.18333,   0.10585,   0.00000  )

     Band symmetry, C_2v (mm2)  point group:

     e(  1 -  1) =    -20.45507  eV     1   --> A_1  D_1  S_1  
     e(  2 -  2) =     -8.40716  eV     1   --> B_2  D_4  S_4  
     e(  3 -  3) =     -7.46571  eV     1   --> A_1  D_1  S_1  
     e(  4 -  4) =     -6.09543  eV     1   --> B_1  D_3  S_3  
     e(  5 -  5) =      2.25001  eV     1   --> A_1  D_1  S_1  
     e(  6 -  6) =      2.99440  eV     1   --> B_2  D_4  S_4  
     e(  7 -  7) =      3.21773  eV     1   --> A_1  D_1  S_1  
     e(  8 -  8) =      5.21475  eV     1   --> B_2  D_4  S_4  
     e(  9 -  9) =      5.99269  eV     1   --> A_1  D_1  S_1  
     e( 10 - 10) =      6.61152  eV     1   --> A_1  D_1  S_1  
     e( 11 - 11) =      7.27246  eV     1   --> B_2  D_4  S_4  
     e( 12 - 12) =      9.14802  eV     1   --> B_2  D_4  S_4  
     e( 13 - 13) =      9.60571  eV     1   --> B_1  D_3  S_3  
     e( 14 - 14) =     10.32257  eV     1   --> A_1  D_1  S_1  
     e( 15 - 15) =     12.36439  eV     1   --> A_1  D_1  S_1  
     e( 16 - 16) =     14.41332  eV     1   --> B_2  D_4  S_4  

 **************************************************************************

 **************************************************************************

                    xk=(   0.16667,   0.09623,   0.00000  )

     Band symmetry, C_2v (mm2)  point group:

     e(  1 -  1) =    -20.59181  eV     1   --> A_1  D_1  S_1  
     e(  2 -  2) =     -8.56900  eV     1   --> B_2  D_4  S_4  
     e(  3 -  3) =     -7.06915  eV     1   --> A_1  D_1  S_1  
     e(  4 -  4) =     -5.91669  eV     1   --> B_1  D_3  S_3  
     e(  5 -  5) =      2.06038  eV     1   --> A_1  D_1  S_1  
     e(  6 -  6) =      2.80463  eV     1   --> B_2  D_4  S_4  
     e(  7 -  7) =      3.02812  eV     1   --> A_1  D_1  S_1  
     e(  8 -  8) =      5.02944  eV     1   --> B_2  D_4  S_4  
     e(  9 -  9) =      5.81439  eV     1   --> A_1  D_1  S_1  
     e( 10 - 10) =      6.64220  eV     1   --> A_1  D_1  S_1  
     e( 11 - 11) =      7.65529  eV     1   --> B_2  D_4  S_4  
     e( 12 - 12) =      8.96706  eV     1   --> B_2  D_4  S_4  
     e( 13 - 13) =      9.13929  eV     1   --> B_1  D_3  S_3  
     e( 14 - 14) =     10.13705  eV     1   --> A_1  D_1  S_1  
     e( 15 - 15) =     12.10710  eV     1   --> A_1  D_1  S_1  
     e( 16 - 16) =     14.25647  eV     1   --> B_2  D_4  S_4  

 **************************************************************************

 **************************************************************************

                    xk=(   0.15000,   0.08660,   0.00000  )

     Band symmetry, C_2v (mm2)  point group:

     e(  1 -  1) =    -20.71570  eV     1   --> A_1  D_1  S_1  
     e(  2 -  2) =     -8.71604  eV     1   --> B_2  D_4  S_4  
     e(  3 -  3) =     -6.69029  eV     1   --> A_1  D_1  S_1  
     e(  4 -  4) =     -5.74085  eV     1   --> B_1  D_3  S_3  
     e(  5 -  5) =      1.88877  eV     1   --> A_1  D_1  S_1  
     e(  6 -  6) =      2.63276  eV     1   --> B_2  D_4  S_4  
     e(  7 -  7) =      2.85655  eV     1   --> A_1  D_1  S_1  
     e(  8 -  8) =      4.86099  eV     1   --> B_2  D_4  S_4  
     e(  9 -  9) =      5.64961  eV     1   --> A_1  D_1  S_1  
     e( 10 - 10) =      6.66728  eV     1   --> A_1  D_1  S_1  
     e( 11 - 11) =      8.01547  eV     1   --> B_2  D_4  S_4  
     e( 12 - 12) =      8.70083  eV     1   --> B_1  D_3  S_3  
     e( 13 - 13) =      8.80327  eV     1   --> B_2  D_4  S_4  
     e( 14 - 14) =      9.96874  eV     1   --> A_1  D_1  S_1  
     e( 15 - 15) =     11.86725  eV     1   --> A_1  D_1  S_1  
     e( 16 - 16) =     14.11170  eV     1   --> B_2  D_4  S_4  

 **************************************************************************

 **************************************************************************

                    xk=(   0.13333,   0.07698,   0.00000  )

     Band symmetry, C_2v (mm2)  point group:

     e(  1 -  1) =    -20.82671  eV     1   --> A_1  D_1  S_1  
     e(  2 -  2) =     -8.84807  eV     1   --> B_2  D_4  S_4  
     e(  3 -  3) =     -6.33301  eV     1   --> A_1  D_1  S_1  
     e(  4 -  4) =     -5.57058  eV     1   --> B_1  D_3  S_3  
     e(  5 -  5) =      1.73519  eV     1   --> A_1  D_1  S_1  
     e(  6 -  6) =      2.47888  eV     1   --> B_2  D_4  S_4  
     e(  7 -  7) =      2.70302  eV     1   --> A_1  D_1  S_1  
     e(  8 -  8) =      4.70986  eV     1   --> B_2  D_4  S_4  
     e(  9 -  9) =      5.50080  eV     1   --> A_1  D_1  S_1  
     e( 10 - 10) =      6.68340  eV     1   --> A_1  D_1  S_1  
     e( 11 - 11) =      8.29378  eV     1   --> B_1  D_3  S_3  
     e( 12 - 12) =      8.34804  eV     1   --> B_2  D_4  S_4  
     e( 13 - 13) =      8.65812  eV     1   --> B_2  D_4  S_4  
     e( 14 - 14) =      9.81767  eV     1   --> A_1  D_1  S_1  
     e( 15 - 15) =     11.64890  eV     1   --> A_1  D_1  S_1  
     e( 16 - 16) =     13.98013  eV     1   --> B_2  D_4  S_4  

 **************************************************************************

 **************************************************************************

                    xk=(   0.11667,   0.06736,   0.00000  )

     Band symmetry, C_2v (mm2)  point group:

     e(  1 -  1) =    -20.92476  eV     1   --> A_1  D_1  S_1  
     e(  2 -  2) =     -8.96492  eV     1   --> B_2  D_4  S_4  
     e(  3 -  3) =     -6.00156  eV     1   --> A_1  D_1  S_1  
     e(  4 -  4) =     -5.40887  eV     1   --> B_1  D_3  S_3  
     e(  5 -  5) =      1.59966  eV     1   --> A_1  D_1  S_1  
     e(  6 -  6) =      2.34302  eV     1   --> B_2  D_4  S_4  
     e(  7 -  7) =      2.56755  eV     1   --> A_1  D_1  S_1  
     e(  8 -  8) =      4.57628  eV     1   --> B_2  D_4  S_4  
     e(  9 -  9) =      5.36888  eV     1   --> A_1  D_1  S_1  
     e( 10 - 10) =      6.68925  eV     1   --> A_1  D_1  S_1  
     e( 11 - 11) =      7.92165  eV     1   --> B_1  D_3  S_3  
     e( 12 - 12) =      8.51634  eV     1   --> B_2  D_4  S_4  
     e( 13 - 13) =      8.66504  eV     1   --> B_2  D_4  S_4  
     e( 14 - 14) =      9.68390  eV     1   --> A_1  D_1  S_1  
     e( 15 - 15) =     11.45530  eV     1   --> A_1  D_1  S_1  
     e( 16 - 16) =     13.86261  eV     1   --> B_2  D_4  S_4  

 **************************************************************************

 **************************************************************************

                    xk=(   0.10000,   0.05774,   0.00000  )

     Band symmetry, C_2v (mm2)  point group:

     e(  1 -  1) =    -21.00983  eV     1   --> A_1  D_1  S_1  
     e(  2 -  2) =     -9.06644  eV     1   --> B_2  D_4  S_4  
     e(  3 -  3) =     -5.70048  eV     1   --> A_1  D_1  S_1  
     e(  4 -  4) =     -5.25892  eV     1   --> B_1  D_3  S_3  
     e(  5 -  5) =      1.48219  eV     1   --> A_1  D_1  S_1  
     e(  6 -  6) =      2.22523  eV     1   --> B_2  D_4  S_4  
     e(  7 -  7) =      2.45015  eV     1   --> A_1  D_1  S_1  
     e(  8 -  8) =      4.46036  eV     1   --> B_2  D_4  S_4  
     e(  9 -  9) =      5.25427  eV     1   --> A_1  D_1  S_1  
     e( 10 - 10) =      6.68520  eV     1   --> A_1  D_1  S_1  
     e( 11 - 11) =      7.58803  eV     1   --> B_1  D_3  S_3  
     e( 12 - 12) =      8.40906  eV     1   --> B_2  D_4  S_4  
     e( 13 - 13) =      8.93223  eV     1   --> B_2  D_4  S_4  
     e( 14 - 14) =      9.56753  eV     1   --> A_1  D_1  S_1  
     e( 15 - 15) =     11.28849  eV     1   --> A_1  D_1  S_1  
     e( 16 - 16) =     13.75973  eV     1   --> B_2  D_4  S_4  

 **************************************************************************

 **************************************************************************

                    xk=(   0.08333,   0.04811,   0.00000  )

     Band symmetry, C_2v (mm2)  point group:

     e(  1 -  1) =    -21.08187  eV     1   --> A_1  D_1  S_1  
     e(  2 -  2) =     -9.15254  eV     1   --> B_2  D_4  S_4  
     e(  3 -  3) =     -5.43457  eV     1   --> A_1  D_1  S_1  
     e(  4 -  4) =     -5.12407  eV     1   --> B_1  D_3  S_3  
     e(  5 -  5) =      1.38279  eV     1   --> A_1  D_1  S_1  
     e(  6 -  6) =      2.12553  eV     1   --> B_2  D_4  S_4  
     e(  7 -  7) =      2.35081  eV     1   --> A_1  D_1  S_1  
     e(  8 -  8) =      4.36219  eV     1   --> B_2  D_4  S_4  
     e(  9 -  9) =      5.15716  eV     1   --> A_1  D_1  S_1  
     e( 10 - 10) =      6.67293  eV     1   --> A_1  D_1  S_1  
     e( 11 - 11) =      7.29710  eV     1   --> B_1  D_3  S_3  
     e( 12 - 12) =      8.31412  eV     1   --> B_2  D_4  S_4  
     e( 13 - 13) =      9.16874  eV     1   --> B_2  D_4  S_4  
     e( 14 - 14) =      9.46869  eV     1   --> A_1  D_1  S_1  
     e( 15 - 15) =     11.14966  eV     1   --> A_1  D_1  S_1  
     e( 16 - 16) =     13.67199  eV     1   --> B_2  D_4  S_4  

 **************************************************************************

 **************************************************************************

                    xk=(   0.06667,   0.03849,   0.00000  )

     Band symmetry, C_2v (mm2)  point group:

     e(  1 -  1) =    -21.14084  eV     1   --> A_1  D_1  S_1  
     e(  2 -  2) =     -9.22309  eV     1   --> B_2  D_4  S_4  
     e(  3 -  3) =     -5.20855  eV     1   --> A_1  D_1  S_1  
     e(  4 -  4) =     -5.00769  eV     1   --> B_1  D_3  S_3  
     e(  5 -  5) =      1.30146  eV     1   --> A_1  D_1  S_1  
     e(  6 -  6) =      2.04394  eV     1   --> B_2  D_4  S_4  
     e(  7 -  7) =      2.26955  eV     1   --> A_1  D_1  S_1  
     e(  8 -  8) =      4.28182  eV     1   --> B_2  D_4  S_4  
     e(  9 -  9) =      5.07767  eV     1   --> A_1  D_1  S_1  
     e( 10 - 10) =      6.65526  eV     1   --> A_1  D_1  S_1  
     e( 11 - 11) =      7.05254  eV     1   --> B_1  D_3  S_3  
     e( 12 - 12) =      8.23602  eV     1   --> B_2  D_4  S_4  
     e( 13 - 13) =      9.36726  eV     1   --> B_2  D_4  S_4  
     e( 14 - 14) =      9.38756  eV     1   --> A_1  D_1  S_1  
     e( 15 - 15) =     11.03866  eV     1   --> A_1  D_1  S_1  
     e( 16 - 16) =     13.59974  eV     1   --> B_2  D_4  S_4  

 **************************************************************************

 **************************************************************************

                    xk=(   0.05000,   0.02887,   0.00000  )

     Band symmetry, C_2v (mm2)  point group:

     e(  1 -  1) =    -21.18674  eV     1   --> A_1  D_1  S_1  
     e(  2 -  2) =     -9.27805  eV     1   --> B_2  D_4  S_4  
     e(  3 -  3) =     -5.02699  eV     1   --> A_1  D_1  S_1  
     e(  4 -  4) =     -4.91303  eV     1   --> B_1  D_3  S_3  
     e(  5 -  5) =      1.23821  eV     1   --> A_1  D_1  S_1  
     e(  6 -  6) =      1.98047  eV     1   --> B_2  D_4  S_4  
     e(  7 -  7) =      2.20635  eV     1   --> A_1  D_1  S_1  
     e(  8 -  8) =      4.21928  eV     1   --> B_2  D_4  S_4  
     e(  9 -  9) =      5.01583  eV     1   --> A_1  D_1  S_1  
     e( 10 - 10) =      6.63582  eV     1   --> A_1  D_1  S_1  
     e( 11 - 11) =      6.85814  eV     1   --> B_1  D_3  S_3  
     e( 12 - 12) =      8.17513  eV     1   --> B_2  D_4  S_4  
     e( 13 - 13) =      9.32426  eV     1   --> A_1  D_1  S_1  
     e( 14 - 14) =      9.52480  eV     1   --> B_2  D_4  S_4  
     e( 15 - 15) =     10.95466  eV     1   --> A_1  D_1  S_1  
     e( 16 - 16) =     13.54326  eV     1   --> B_2  D_4  S_4  

 **************************************************************************

 **************************************************************************

                    xk=(   0.03333,   0.01925,   0.00000  )

     Band symmetry, C_2v (mm2)  point group:

     e(  1 -  1) =    -21.21954  eV     1   --> A_1  D_1  S_1  
     e(  2 -  2) =     -9.31734  eV     1   --> B_2  D_4  S_4  
     e(  3 -  3) =     -4.89407  eV     1   --> A_1  D_1  S_1  
     e(  4 -  4) =     -4.84310  eV     1   --> B_1  D_3  S_3  
     e(  5 -  5) =      1.19303  eV     1   --> A_1  D_1  S_1  
     e(  6 -  6) =      1.93512  eV     1   --> B_2  D_4  S_4  
     e(  7 -  7) =      2.16120  eV     1   --> A_1  D_1  S_1  
     e(  8 -  8) =      4.17459  eV     1   --> B_2  D_4  S_4  
     e(  9 -  9) =      4.97166  eV     1   --> A_1  D_1  S_1  
     e( 10 - 10) =      6.61816  eV     1   --> A_1  D_1  S_1  
     e( 11 - 11) =      6.71656  eV     1   --> B_1  D_3  S_3  
     e( 12 - 12) =      8.13159  eV     1   --> B_2  D_4  S_4  
     e( 13 - 13) =      9.27895  eV     1   --> A_1  D_1  S_1  
     e( 14 - 14) =      9.63906  eV     1   --> B_2  D_4  S_4  
     e( 15 - 15) =     10.89610  eV     1   --> A_1  D_1  S_1  
     e( 16 - 16) =     13.50276  eV     1   --> B_2  D_4  S_4  

 **************************************************************************

 **************************************************************************

                    xk=(   0.01667,   0.00962,   0.00000  )

     Band symmetry, C_2v (mm2)  point group:

     e(  1 -  1) =    -21.23924  eV     1   --> A_1  D_1  S_1  
     e(  2 -  2) =     -9.34093  eV     1   --> B_2  D_4  S_4  
     e(  3 -  3) =     -4.81291  eV     1   --> A_1  D_1  S_1  
     e(  4 -  4) =     -4.80013  eV     1   --> B_1  D_3  S_3  
     e(  5 -  5) =      1.16592  eV     1   --> A_1  D_1  S_1  
     e(  6 -  6) =      1.90791  eV     1   --> B_2  D_4  S_4  
     e(  7 -  7) =      2.13412  eV     1   --> A_1  D_1  S_1  
     e(  8 -  8) =      4.14777  eV     1   --> B_2  D_4  S_4  
     e(  9 -  9) =      4.94516  eV     1   --> A_1  D_1  S_1  
     e( 10 - 10) =      6.60605  eV     1   --> A_1  D_1  S_1  
     e( 11 - 11) =      6.63063  eV     1   --> B_1  D_3  S_3  
     e( 12 - 12) =      8.10544  eV     1   --> B_2  D_4  S_4  
     e( 13 - 13) =      9.25172  eV     1   --> A_1  D_1  S_1  
     e( 14 - 14) =      9.70832  eV     1   --> B_2  D_4  S_4  
     e( 15 - 15) =     10.86171  eV     1   --> A_1  D_1  S_1  
     e( 16 - 16) =     13.47840  eV     1   --> B_2  D_4  S_4  

 **************************************************************************

 **************************************************************************

                    xk=(   0.00000,   0.00000,   0.00000  )

     point group D_6h(6/mmm)
     there are 12 classes
     the character table:

       E     2C6   2C3   C2    3C2'  3C2'' i     2S3   2S6   s_h   3s_d  3s_v 
A_1g   1.00  1.00  1.00  1.00  1.00  1.00  1.00  1.00  1.00  1.00  1.00  1.00
A_2g   1.00  1.00  1.00  1.00 -1.00 -1.00  1.00  1.00  1.00  1.00 -1.00 -1.00
B_1g   1.00 -1.00  1.00 -1.00  1.00 -1.00  1.00 -1.00  1.00 -1.00  1.00 -1.00
B_2g   1.00 -1.00  1.00 -1.00 -1.00  1.00  1.00 -1.00  1.00 -1.00 -1.00  1.00
E_1g   2.00  1.00 -1.00 -2.00  0.00  0.00  2.00  1.00 -1.00 -2.00  0.00  0.00
E_2g   2.00 -1.00 -1.00  2.00  0.00  0.00  2.00 -1.00 -1.00  2.00  0.00  0.00
A_1u   1.00  1.00  1.00  1.00  1.00  1.00 -1.00 -1.00 -1.00 -1.00 -1.00 -1.00
A_2u   1.00  1.00  1.00  1.00 -1.00 -1.00 -1.00 -1.00 -1.00 -1.00  1.00  1.00
B_1u   1.00 -1.00  1.00 -1.00  1.00 -1.00 -1.00  1.00 -1.00  1.00 -1.00  1.00
B_2u   1.00 -1.00  1.00 -1.00 -1.00  1.00 -1.00  1.00 -1.00  1.00  1.00 -1.00
E_1u   2.00  1.00 -1.00 -2.00  0.00  0.00 -2.00 -1.00  1.00  2.00  0.00  0.00
E_2u   2.00 -1.00 -1.00  2.00  0.00  0.00 -2.00  1.00  1.00 -2.00  0.00  0.00

     the symmetry operations in each class and the name of the first element:

     E        1
                                                                 
     2C6      5    6
                                                                 
     2C3      7    8
                                                                 
     C2       2
                                                                 
     3C2'     4   12   11
                                                                 
     3C2''    3    9   10
                                                                 
     i       13
                                                                 
     2S3     17   18
                                                                 
     2S6     19   20
                                                                 
     s_h     14
                                                                 
     3s_d    16   24   23
                                                                 
     3s_v    15   21   22
                                                                 

     Band symmetry, D_6h(6/mmm) point group:

     e(  1 -  1) =    -21.24579  eV     1   --> A_1g           
     e(  2 -  2) =     -9.34880  eV     1   --> A_2u           
     e(  3 -  4) =     -4.78558  eV     2   --> E_2g           
     e(  5 -  5) =      1.15688  eV     1   --> A_1g           
     e(  6 -  6) =      1.89884  eV     1   --> A_2u           
     e(  7 -  7) =      2.12509  eV     1   --> A_1g           
     e(  8 -  8) =      4.13883  eV     1   --> A_2u           
     e(  9 -  9) =      4.93633  eV     1   --> A_1g           
     e( 10 - 11) =      6.60187  eV     2   --> E_1u           
     e( 12 - 12) =      8.09673  eV     1   --> A_2u           
     e( 13 - 13) =      9.24264  eV     1   --> A_1g           
     e( 14 - 14) =      9.73152  eV     1   --> B_1g           
     e( 15 - 15) =     10.85042  eV     1   --> B_2u           
     e( 16 - 16) =     13.47027  eV     1   --> A_2u           

 **************************************************************************

     BANDS        :      6.28s CPU      7.40s WALL


   This run was terminated on:  18:56: 4  25Aug2023            

=------------------------------------------------------------------------------=
   JOB DONE.
=------------------------------------------------------------------------------=
