
     Program PWSCF v.7.0 starts on 25Aug2023 at 18:55:12 

     This program is part of the open-source Quantum ESPRESSO suite
     for quantum simulation of materials; please cite
         "P. Giannozzi et al., J. Phys.:Condens. Matter 21 395502 (2009);
         "P. Giannozzi et al., J. Phys.:Condens. Matter 29 465901 (2017);
         "P. Giannozzi et al., J. Chem. Phys. 152 154105 (2020);
          URL http://www.quantum-espresso.org", 
     in publications or presentations arising from this work. More details at
     http://www.quantum-espresso.org/quote

     Serial version
     6283 MiB available memory on the printing compute node when the environment starts

     Waiting for input...
     Reading input from standard input

     Current dimensions of program PWSCF are:
     Max number of different atomic species (ntypx) = 10
     Max number of k-points (npk) =  40000
     Max angular momentum in pseudopotentials (lmaxx) =  4

     Atomic positions and unit cell read from directory:
     ../tmp/gr.save/
     Atomic positions from file used, from input discarded


     G-vector sticks info
     --------------------
     sticks:   dense  smooth     PW     G-vecs:    dense   smooth      PW
     Sum         241     241     85                18211    18211    3425

     Using Slab Decomposition



     bravais-lattice index     =            4
     lattice parameter (alat)  =       4.6561  a.u.
     unit-cell volume          =     532.1899 (a.u.)^3
     number of atoms/cell      =            2
     number of atomic types    =            1
     number of electrons       =         8.00
     number of Kohn-Sham states=           16
     kinetic-energy cutoff     =      40.0000  Ry
     charge density cutoff     =     160.0000  Ry
     Exchange-correlation= PBE
                           (   1   4   3   4   0   0   0)

     celldm(1)=   4.656107  celldm(2)=   0.000000  celldm(3)=   6.087896
     celldm(4)=   0.000000  celldm(5)=   0.000000  celldm(6)=   0.000000

     crystal axes: (cart. coord. in units of alat)
               a(1) = (   1.000000   0.000000   0.000000 )  
               a(2) = (  -0.500000   0.866025   0.000000 )  
               a(3) = (   0.000000   0.000000   6.087896 )  

     reciprocal axes: (cart. coord. in units 2 pi/alat)
               b(1) = (  1.000000  0.577350 -0.000000 )  
               b(2) = (  0.000000  1.154701  0.000000 )  
               b(3) = (  0.000000 -0.000000  0.164260 )  


     PseudoPot. # 1 for C  read from file:
     ../pseudo/C.pbe-n-rrkjus_psl.0.1.UPF
     MD5 check sum: 96a6a315177d77e6c95bf6fd3870f9e3
     Pseudo is Ultrasoft + core correction, Zval =  4.0
     Generated using &quot;atomic&quot; code by A. Dal Corso  v.6.3MaX
     Using radial grid of 1073 points,  4 beta functions with: 
                l(1) =   0
                l(2) =   0
                l(3) =   1
                l(4) =   1
     Q(r) pseudized with 0 coefficients 


     atomic species   valence    mass     pseudopotential
        C              4.00    12.01070     C ( 1.00)

     24 Sym. Ops., with inversion, found



   Cartesian axes

     site n.     atom                  positions (alat units)
         1           C   tau(   1) = (   0.0000000   0.5773503   3.0439478  )
         2           C   tau(   2) = (   0.5000000   0.2886751   3.0439478  )

     number of k points=    91  Marzari-Vanderbilt smearing, width (Ry)=  0.0200
                       cart. coord. in units 2pi/alat
        k(    1) = (   0.0000000   0.0000000   0.0000000), wk =   0.0219780
        k(    2) = (   0.0166667   0.0000000   0.0000000), wk =   0.0219780
        k(    3) = (   0.0333333   0.0000000   0.0000000), wk =   0.0219780
        k(    4) = (   0.0500000   0.0000000   0.0000000), wk =   0.0219780
        k(    5) = (   0.0666667   0.0000000   0.0000000), wk =   0.0219780
        k(    6) = (   0.0833333   0.0000000   0.0000000), wk =   0.0219780
        k(    7) = (   0.1000000   0.0000000   0.0000000), wk =   0.0219780
        k(    8) = (   0.1166667   0.0000000   0.0000000), wk =   0.0219780
        k(    9) = (   0.1333333   0.0000000   0.0000000), wk =   0.0219780
        k(   10) = (   0.1500000   0.0000000   0.0000000), wk =   0.0219780
        k(   11) = (   0.1666667   0.0000000   0.0000000), wk =   0.0219780
        k(   12) = (   0.1833333   0.0000000   0.0000000), wk =   0.0219780
        k(   13) = (   0.2000000   0.0000000   0.0000000), wk =   0.0219780
        k(   14) = (   0.2166667   0.0000000   0.0000000), wk =   0.0219780
        k(   15) = (   0.2333333   0.0000000   0.0000000), wk =   0.0219780
        k(   16) = (   0.2500000   0.0000000   0.0000000), wk =   0.0219780
        k(   17) = (   0.2666667   0.0000000   0.0000000), wk =   0.0219780
        k(   18) = (   0.2833333   0.0000000   0.0000000), wk =   0.0219780
        k(   19) = (   0.3000000   0.0000000   0.0000000), wk =   0.0219780
        k(   20) = (   0.3166667   0.0000000   0.0000000), wk =   0.0219780
        k(   21) = (   0.3333333   0.0000000   0.0000000), wk =   0.0219780
        k(   22) = (   0.3500000   0.0000000   0.0000000), wk =   0.0219780
        k(   23) = (   0.3666667   0.0000000   0.0000000), wk =   0.0219780
        k(   24) = (   0.3833333   0.0000000   0.0000000), wk =   0.0219780
        k(   25) = (   0.4000000   0.0000000   0.0000000), wk =   0.0219780
        k(   26) = (   0.4166667   0.0000000   0.0000000), wk =   0.0219780
        k(   27) = (   0.4333333   0.0000000   0.0000000), wk =   0.0219780
        k(   28) = (   0.4500000   0.0000000   0.0000000), wk =   0.0219780
        k(   29) = (   0.4666667   0.0000000   0.0000000), wk =   0.0219780
        k(   30) = (   0.4833333   0.0000000   0.0000000), wk =   0.0219780
        k(   31) = (   0.5000000   0.0000000   0.0000000), wk =   0.0219780
        k(   32) = (   0.5166667   0.0000000   0.0000000), wk =   0.0219780
        k(   33) = (   0.5333333   0.0000000   0.0000000), wk =   0.0219780
        k(   34) = (   0.5500000   0.0000000   0.0000000), wk =   0.0219780
        k(   35) = (   0.5666667   0.0000000   0.0000000), wk =   0.0219780
        k(   36) = (   0.5833333   0.0000000   0.0000000), wk =   0.0219780
        k(   37) = (   0.6000000   0.0000000   0.0000000), wk =   0.0219780
        k(   38) = (   0.6166667   0.0000000   0.0000000), wk =   0.0219780
        k(   39) = (   0.6333333   0.0000000   0.0000000), wk =   0.0219780
        k(   40) = (   0.6500000   0.0000000   0.0000000), wk =   0.0219780
        k(   41) = (   0.6666667   0.0000000   0.0000000), wk =   0.0219780
        k(   42) = (   0.6583333   0.0144338   0.0000000), wk =   0.0219780
        k(   43) = (   0.6500000   0.0288675   0.0000000), wk =   0.0219780
        k(   44) = (   0.6416667   0.0433013   0.0000000), wk =   0.0219780
        k(   45) = (   0.6333333   0.0577350   0.0000000), wk =   0.0219780
        k(   46) = (   0.6250000   0.0721688   0.0000000), wk =   0.0219780
        k(   47) = (   0.6166667   0.0866025   0.0000000), wk =   0.0219780
        k(   48) = (   0.6083333   0.1010363   0.0000000), wk =   0.0219780
        k(   49) = (   0.6000000   0.1154701   0.0000000), wk =   0.0219780
        k(   50) = (   0.5916667   0.1299038   0.0000000), wk =   0.0219780
        k(   51) = (   0.5833333   0.1443376   0.0000000), wk =   0.0219780
        k(   52) = (   0.5750000   0.1587713   0.0000000), wk =   0.0219780
        k(   53) = (   0.5666667   0.1732051   0.0000000), wk =   0.0219780
        k(   54) = (   0.5583333   0.1876388   0.0000000), wk =   0.0219780
        k(   55) = (   0.5500000   0.2020726   0.0000000), wk =   0.0219780
        k(   56) = (   0.5416667   0.2165064   0.0000000), wk =   0.0219780
        k(   57) = (   0.5333333   0.2309401   0.0000000), wk =   0.0219780
        k(   58) = (   0.5250000   0.2453739   0.0000000), wk =   0.0219780
        k(   59) = (   0.5166667   0.2598076   0.0000000), wk =   0.0219780
        k(   60) = (   0.5083333   0.2742414   0.0000000), wk =   0.0219780
        k(   61) = (   0.5000000   0.2886751   0.0000000), wk =   0.0219780
        k(   62) = (   0.4833333   0.2790526   0.0000000), wk =   0.0219780
        k(   63) = (   0.4666667   0.2694301   0.0000000), wk =   0.0219780
        k(   64) = (   0.4500000   0.2598076   0.0000000), wk =   0.0219780
        k(   65) = (   0.4333333   0.2501851   0.0000000), wk =   0.0219780
        k(   66) = (   0.4166667   0.2405626   0.0000000), wk =   0.0219780
        k(   67) = (   0.4000000   0.2309401   0.0000000), wk =   0.0219780
        k(   68) = (   0.3833333   0.2213176   0.0000000), wk =   0.0219780
        k(   69) = (   0.3666667   0.2116951   0.0000000), wk =   0.0219780
        k(   70) = (   0.3500000   0.2020726   0.0000000), wk =   0.0219780
        k(   71) = (   0.3333333   0.1924501   0.0000000), wk =   0.0219780
        k(   72) = (   0.3166667   0.1828276   0.0000000), wk =   0.0219780
        k(   73) = (   0.3000000   0.1732051   0.0000000), wk =   0.0219780
        k(   74) = (   0.2833333   0.1635826   0.0000000), wk =   0.0219780
        k(   75) = (   0.2666667   0.1539601   0.0000000), wk =   0.0219780
        k(   76) = (   0.2500000   0.1443376   0.0000000), wk =   0.0219780
        k(   77) = (   0.2333333   0.1347151   0.0000000), wk =   0.0219780
        k(   78) = (   0.2166667   0.1250926   0.0000000), wk =   0.0219780
        k(   79) = (   0.2000000   0.1154701   0.0000000), wk =   0.0219780
        k(   80) = (   0.1833333   0.1058475   0.0000000), wk =   0.0219780
        k(   81) = (   0.1666667   0.0962250   0.0000000), wk =   0.0219780
        k(   82) = (   0.1500000   0.0866025   0.0000000), wk =   0.0219780
        k(   83) = (   0.1333333   0.0769800   0.0000000), wk =   0.0219780
        k(   84) = (   0.1166667   0.0673575   0.0000000), wk =   0.0219780
        k(   85) = (   0.1000000   0.0577350   0.0000000), wk =   0.0219780
        k(   86) = (   0.0833333   0.0481125   0.0000000), wk =   0.0219780
        k(   87) = (   0.0666667   0.0384900   0.0000000), wk =   0.0219780
        k(   88) = (   0.0500000   0.0288675   0.0000000), wk =   0.0219780
        k(   89) = (   0.0333333   0.0192450   0.0000000), wk =   0.0219780
        k(   90) = (   0.0166667   0.0096225   0.0000000), wk =   0.0219780
        k(   91) = (   0.0000000   0.0000000   0.0000000), wk =   0.0219780

     Dense  grid:    18211 G-vectors     FFT dimensions: (  20,  20, 120)

     Estimated max dynamical RAM per process >      19.68 MB

     Check: negative core charge=   -0.000016

     The potential is recalculated from file :
     ../tmp/gr.save/charge-density


     negative rho (up, down):  4.223E-04 0.000E+00
     Starting wfcs are    8 randomized atomic wfcs +    8 random wfcs

     Band Structure Calculation
     Davidson diagonalization with overlap

     ethr =  1.25E-08,  avg # of iterations = 46.3

     total cpu time spent up to now is       43.0 secs

     End of band structure calculation

          k = 0.0000 0.0000 0.0000 (  2289 PWs)   bands (ev):

   -21.2458  -9.3488  -4.7856  -4.7856   1.1569   1.8988   2.1251   4.1388
     4.9363   6.6019   6.6019   8.0967   9.2426   9.7315  10.8504  13.4703

          k = 0.0167 0.0000 0.0000 (  2287 PWs)   bands (ev):

   -21.2409  -9.3429  -4.8061  -4.7965   1.1637   1.9056   2.1319   4.1455
     4.9430   6.6051   6.6234   8.1033   9.2495   9.7141  10.8589  13.4764

          k = 0.0333 0.0000 0.0000 (  2287 PWs)   bands (ev):

   -21.2261  -9.3252  -4.8669  -4.8291   1.1840   1.9261   2.1522   4.1657
     4.9628   6.6151   6.6874   8.1229   9.2699   9.6621  10.8846  13.4946

          k = 0.0500 0.0000 0.0000 (  2279 PWs)   bands (ev):

   -21.2015  -9.2957  -4.9663  -4.8831   1.2179   1.9601   2.1860   4.1992
     4.9960   6.6319   6.7911   8.1555   9.3039   9.5760  10.9283  13.5250

          k = 0.0667 0.0000 0.0000 (  2279 PWs)   bands (ev):

   -21.1671  -9.2545  -5.1016  -4.9581   1.2653   2.0077   2.2334   4.2461
     5.0423   6.6559   6.9306   8.2012   9.3514   9.4570  10.9909  13.5675

          k = 0.0833 0.0000 0.0000 (  2283 PWs)   bands (ev):

   -21.1228  -9.2015  -5.2695  -5.0533   1.3263   2.0689   2.2944   4.3064
     5.1020   6.6876   7.1007   8.2599   9.3063   9.4124  11.0744  13.6218

          k = 0.1000 0.0000 0.0000 (  2281 PWs)   bands (ev):

   -21.0688  -9.1369  -5.4662  -5.1681   1.4009   2.1437   2.3689   4.3801
     5.1749   6.7271   7.2952   8.3316   9.1256   9.4869  11.1804  13.6878

          k = 0.1167 0.0000 0.0000 (  2289 PWs)   bands (ev):

   -21.0049  -9.0606  -5.6880  -5.3014   1.4890   2.2320   2.4569   4.4671
     5.2612   6.7752   7.5075   8.4162   8.9168   9.5746  11.3117  13.7652

          k = 0.1333 0.0000 0.0000 (  2283 PWs)   bands (ev):

   -20.9313  -8.9727  -5.9308  -5.4522   1.5907   2.3340   2.5586   4.5674
     5.3607   6.8325   7.7306   8.5136   8.6822   9.6756  11.4710  13.8537

          k = 0.1500 0.0000 0.0000 (  2295 PWs)   bands (ev):

   -20.8480  -8.8733  -6.1913  -5.6193   1.7059   2.4495   2.6737   4.6811
     5.4736   6.8992   7.9577   8.4240   8.6237   9.7898  11.6608  13.9527

          k = 0.1667 0.0000 0.0000 (  2291 PWs)   bands (ev):

   -20.7549  -8.7625  -6.4661  -5.8015   1.8346   2.5785   2.8025   4.8079
     5.5998   6.9761   8.1445   8.1827   8.7465   9.9172  11.8835  14.0615

          k = 0.1833 0.0000 0.0000 (  2281 PWs)   bands (ev):

   -20.6521  -8.6404  -6.7522  -5.9974   1.9770   2.7211   2.9448   4.9480
     5.7393   7.0634   7.8462   8.4005   8.8817  10.0576  12.1404  14.1792

          k = 0.2000 0.0000 0.0000 (  2285 PWs)   bands (ev):

   -20.5397  -8.5071  -7.0471  -6.2057   2.1328   2.8771   3.1007   5.1013
     5.8921   7.1612   7.5313   8.6074   9.0292  10.2110  12.4315  14.3043

          k = 0.2167 0.0000 0.0000 (  2285 PWs)   bands (ev):

   -20.4177  -8.3626  -7.3484  -6.4251   2.3022   3.0467   3.2701   5.2676
     6.0582   7.2022   7.2700   8.8014   9.1888  10.3775  12.7556  14.4348

          k = 0.2333 0.0000 0.0000 (  2281 PWs)   bands (ev):

   -20.2862  -8.2073  -7.6542  -6.6542   2.4851   3.2297   3.4530   5.4470
     6.2376   6.8613   7.3899   8.9818   9.3601  10.5568  13.1102  14.5676

          k = 0.2500 0.0000 0.0000 (  2283 PWs)   bands (ev):

   -20.1452  -8.0411  -7.9627  -6.8917   2.6815   3.4261   3.6496   5.6392
     6.4302   6.5105   7.5208   9.1492   9.5427  10.7490  13.4915  14.6978

          k = 0.2667 0.0000 0.0000 (  2283 PWs)   bands (ev):

   -19.9947  -8.2725  -7.8643  -7.1362   2.8914   3.6358   3.8596   5.8442
     6.1518   6.6359   7.6629   9.3049   9.7362  10.9540  13.8947  14.8178

          k = 0.2833 0.0000 0.0000 (  2287 PWs)   bands (ev):

   -19.8349  -8.5823  -7.6772  -7.3867   3.1147   3.8589   4.0832   5.7872
     6.0619   6.8547   7.8160   9.4504   9.9397  11.1718  14.3148  14.9155

          k = 0.3000 0.0000 0.0000 (  2287 PWs)   bands (ev):

   -19.6657  -8.8910  -7.6417  -7.4798   3.3515   4.0951   4.3203   5.4182
     6.2919   7.0865   7.9801   9.5874  10.1522  11.4023  14.7461  14.9727

          k = 0.3167 0.0000 0.0000 (  2283 PWs)   bands (ev):

   -19.4874  -9.1975  -7.9003  -7.2726   3.6016   4.3446   4.5708   5.0465
     6.5341   7.3311   8.1552   9.7176  10.3723  11.6453  14.9676  15.1819

          k = 0.3333 0.0000 0.0000 (  2273 PWs)   bands (ev):

   -19.3001  -9.5012  -8.1613  -7.0558   3.8652   4.6070   4.6736   4.8348
     6.7881   7.5882   8.3410   9.8423  10.5978  11.9008  14.8843  15.6146

          k = 0.3500 0.0000 0.0000 (  2275 PWs)   bands (ev):

   -19.1037  -9.8013  -8.4237  -6.8297   4.1420   4.3006   4.8823   5.1123
     7.0534   7.8574   8.5374   9.9626  10.8254  12.1687  14.7278  16.0340

          k = 0.3667 0.0000 0.0000 (  2285 PWs)   bands (ev):

   -18.8985 -10.0971  -8.6865  -6.5947   3.9289   4.4322   5.1703   5.4032
     7.3295   8.1382   8.7444  10.0795  11.0500  12.4486  14.5242  16.4243

          k = 0.3833 0.0000 0.0000 (  2285 PWs)   bands (ev):

   -18.6846 -10.3882  -8.9489  -6.3512   3.5595   4.7355   5.4707   5.7074
     7.6153   8.4297   8.9624  10.1936  11.2636  12.7404  14.3077  16.7598

          k = 0.4000 0.0000 0.0000 (  2283 PWs)   bands (ev):

   -18.4622 -10.6741  -9.2098  -6.0996   3.1933   5.0520   5.7831   6.0250
     7.9097   8.7302   9.1920  10.3054  11.4536  13.0437  14.1118  16.9954

          k = 0.4167 0.0000 0.0000 (  2283 PWs)   bands (ev):

   -18.2315 -10.9543  -9.4685  -5.8406   2.8312   5.3815   6.1070   6.3559
     8.2108   9.0367   9.4352  10.4151  11.6025  13.3581  13.9696  17.0671

          k = 0.4333 0.0000 0.0000 (  2295 PWs)   bands (ev):

   -17.9928 -11.2286  -9.7242  -5.5748   2.4739   5.7239   6.4417   6.6999
     8.5157   9.3441   9.6959  10.5227  11.6917  13.6827  13.9111  16.9440

          k = 0.4500 0.0000 0.0000 (  2277 PWs)   bands (ev):

   -17.7462 -11.4966  -9.9761  -5.3027   2.1224   6.0791   6.7860   7.0571
     8.8198   9.6446   9.9805  10.6283  11.7144  13.9537  14.0167  16.6798

          k = 0.4667 0.0000 0.0000 (  2281 PWs)   bands (ev):

   -17.4922 -11.7581 -10.2235  -5.0253   1.7771   6.4467   7.1379   7.4273
     9.1160   9.9309  10.2940  10.7310  11.6873  14.0920  14.3583  16.3482

          k = 0.4833 0.0000 0.0000 (  2269 PWs)   bands (ev):

   -17.2313 -12.0127 -10.4655  -4.7432   1.4386   6.8267   7.4944   7.8103
     9.3929  10.2012  10.6357  10.8304  11.6473  14.3039  14.7047  15.9923

          k = 0.5000 0.0000 0.0000 (  2269 PWs)   bands (ev):

   -16.9638 -12.2604 -10.7012  -4.4577   1.1076   7.2186   7.8499   8.2059
     9.6355  10.4577  10.9254  11.0003  11.6384  14.5635  15.0486  15.6317

          k = 0.5167 0.0000 0.0000 (  2263 PWs)   bands (ev):

   -16.6905 -12.5009 -10.9299  -4.1696   0.7843   7.6218   8.1941   8.6139
     9.8312  10.7016  11.0147  11.3823  11.7004  14.8437  15.2758  15.2927

          k = 0.5333 0.0000 0.0000 (  2267 PWs)   bands (ev):

   -16.4123 -12.7341 -11.1505  -3.8803   0.4693   8.0356   8.5077   9.0338
     9.9881  10.9314  11.0963  11.7771  11.8557  14.9295  14.9963  15.0971

          k = 0.5500 0.0000 0.0000 (  2257 PWs)   bands (ev):

   -16.1302 -12.9599 -11.3617  -3.5912   0.1630   8.4589   8.7589   9.4650
    10.1493  11.1435  11.1679  12.0996  12.1806  14.5956  14.6587  14.9912

          k = 0.5667 0.0000 0.0000 (  2257 PWs)   bands (ev):

   -15.8458 -13.1780 -11.5619  -3.3037  -0.1343   8.8899   8.9161   9.9066
    10.3717  11.2266  11.3321  12.4098  12.5875  14.2758  14.3374  14.6338

          k = 0.5833 0.0000 0.0000 (  2259 PWs)   bands (ev):

   -15.5613 -13.3885 -11.7490  -3.0194  -0.4223   8.9790   9.3258  10.3567
    10.6791  11.2685  11.4899  12.7617  12.9875  13.9711  14.0380  14.2895

          k = 0.6000 0.0000 0.0000 (  2251 PWs)   bands (ev):

   -15.2799 -13.5912 -11.9198  -2.7403  -0.7007   8.9798   9.7615  10.8115
    11.0559  11.2899  11.6110  13.1290  13.3503  13.6818  13.7749  13.9583

          k = 0.6167 0.0000 0.0000 (  2249 PWs)   bands (ev):

   -15.0063 -13.7860 -12.0698  -2.4681  -0.9692   8.9523  10.1879  11.2576
    11.2867  11.4780  11.6995  13.4075  13.4283  13.4580  13.6403  13.7571

          k = 0.6333 0.0000 0.0000 (  2247 PWs)   bands (ev):

   -14.7477 -13.9729 -12.1919  -2.2049  -1.2276   8.9190  10.5862  11.2560
    11.5830  11.8631  11.9265  13.1473  13.2115  13.3356  13.5815  13.9253

          k = 0.6500 0.0000 0.0000 (  2259 PWs)   bands (ev):

   -14.5150 -14.1518 -12.2758  -1.9526  -1.4757   8.8935  10.9174  11.1965
    11.6348  12.2616  12.3802  12.8998  12.9894  13.0441  13.4618  13.9897

          k = 0.6667 0.0000 0.0000 (  2259 PWs)   bands (ev):

   -14.3226 -14.3226 -12.3072  -1.7133  -1.7133   8.8837  11.1099  11.1099
    11.6342  12.6633  12.6633  12.7661  12.7661  12.8147  13.3512  14.0509

          k = 0.6583 0.0144 0.0000 (  2261 PWs)   bands (ev):

   -14.4853 -14.1860 -12.2714  -1.9402  -1.4887   8.8947  11.0001  11.1224
    11.6165  12.4368  12.5014  12.5458  12.8205  13.1662  13.5686  13.9659

          k = 0.6500 0.0289 0.0000 (  2248 PWs)   bands (ev):

   -14.6399 -14.1132 -12.1609  -2.1563  -1.2803   8.9289  10.8724  11.0209
    11.5056  12.2196  12.2501  12.3368  12.6572  13.6216  13.9003  13.9933

          k = 0.6417 0.0433 0.0000 (  2248 PWs)   bands (ev):

   -14.7862 -14.0988 -11.9820  -2.3614  -1.0896   8.9873  10.7326  10.8650
    11.2831  12.0115  12.0124  12.1231  12.4665  13.8447  14.0980  14.1609

          k = 0.6333 0.0577 0.0000 (  2248 PWs)   bands (ev):

   -14.9243 -14.1278 -11.7506  -2.5553  -0.9172   9.0690  10.5862  10.6641
    10.9944  11.7881  11.8130  11.9142  12.2812  13.7906  13.9391  14.2841

          k = 0.6250 0.0722 0.0000 (  2248 PWs)   bands (ev):

   -15.0542 -14.1844 -11.4836  -2.7381  -0.7637   9.1717  10.3809  10.4376
    10.7212  11.5773  11.6243  11.7158  12.1099  13.7306  13.7318  14.1657

          k = 0.6167 0.0866 0.0000 (  2252 PWs)   bands (ev):

   -15.1758 -14.2565 -11.1945  -2.9095  -0.6290   9.2910   9.9993  10.2904
    10.5105  11.3800  11.4461  11.5296  11.9572  13.5354  13.6650  14.0300

          k = 0.6083 0.1010 0.0000 (  2250 PWs)   bands (ev):

   -15.2891 -14.3360 -10.8929  -3.0694  -0.5123   9.4208   9.5680  10.1474
    10.3357  11.1963  11.2787  11.3560  11.8267  13.3536  13.5903  13.8939

          k = 0.6000 0.1155 0.0000 (  2252 PWs)   bands (ev):

   -15.3940 -14.4177 -10.5860  -3.2178  -0.4129   9.1197   9.5528  10.0105
    10.1789  11.0262  11.1225  11.1949  11.7220  13.1851  13.5094  13.7620

          k = 0.5917 0.1299 0.0000 (  2252 PWs)   bands (ev):

   -15.4907 -14.4983 -10.2792  -3.3546  -0.3294   8.6708   9.6773   9.8813
    10.0355  10.8696  10.9780  11.0463  11.6465  13.0300  13.4251  13.6366

          k = 0.5833 0.1443 0.0000 (  2254 PWs)   bands (ev):

   -15.5789 -14.5755  -9.9772  -3.4798  -0.2604   8.2311   9.7609   9.7844
     9.9043  10.7266  10.8453  10.9103  11.6026  12.8884  13.3406  13.5193

          k = 0.5750 0.1588 0.0000 (  2264 PWs)   bands (ev):

   -15.6588 -14.6478  -9.6843  -3.5932  -0.2040   7.8080   9.6503   9.7850
     9.8666  10.5972  10.7247  10.7869  11.5893  12.7602  13.2583  13.4111

          k = 0.5667 0.1732 0.0000 (  2264 PWs)   bands (ev):

   -15.7303 -14.7143  -9.4049  -3.6948  -0.1588   7.4083   9.5501   9.6778
     9.9209  10.4814  10.6165  10.6763  11.6015  12.6455  13.1805  13.3128

          k = 0.5583 0.1876 0.0000 (  2272 PWs)   bands (ev):

   -15.7934 -14.7740  -9.1432  -3.7845  -0.1231   7.0378   9.4608   9.5828
     9.9497  10.3792  10.5207  10.5785  11.6301  12.5442  13.1089  13.2250

          k = 0.5500 0.2021 0.0000 (  2272 PWs)   bands (ev):

   -15.8481 -14.8267  -8.9036  -3.8624  -0.0954   6.7020   9.3828   9.5001
     9.9589  10.2906  10.4375  10.4936  11.6650  12.4564  13.0449  13.1481

          k = 0.5417 0.2165 0.0000 (  2278 PWs)   bands (ev):

   -15.8945 -14.8717  -8.6907  -3.9284  -0.0742   6.4062   9.3164   9.4300
     9.9555  10.2157  10.3669  10.4216  11.6984  12.3821  12.9893  13.0826

          k = 0.5333 0.2309 0.0000 (  2282 PWs)   bands (ev):

   -15.9324 -14.9089  -8.5087  -3.9824  -0.0586   6.1558   9.2617   9.3724
     9.9455  10.1543  10.3090  10.3627  11.7259  12.3213  12.9430  13.0287

          k = 0.5250 0.2454 0.0000 (  2274 PWs)   bands (ev):

   -15.9618 -14.9380  -8.3620  -4.0244  -0.0474   5.9553   9.2191   9.3276
     9.9336  10.1066  10.2640  10.3168  11.7462  12.2740  12.9065  12.9866

          k = 0.5167 0.2598 0.0000 (  2278 PWs)   bands (ev):

   -15.9829 -14.9589  -8.2542  -4.0544  -0.0400   5.8089   9.1886   9.2955
     9.9231  10.0726  10.2318  10.2840  11.7597  12.2402  12.8802  12.9564

          k = 0.5083 0.2742 0.0000 (  2266 PWs)   bands (ev):

   -15.9955 -14.9714  -8.1883  -4.0724  -0.0358   5.7196   9.1702   9.2762
     9.9161  10.0521  10.2125  10.2643  11.7672  12.2200  12.8643  12.9383

          k = 0.5000 0.2887 0.0000 (  2260 PWs)   bands (ev):

   -15.9997 -14.9756  -8.1661  -4.0784  -0.0344   5.6897   9.1641   9.2698
     9.9136  10.0453  10.2060  10.2578  11.7696  12.2132  12.8590  12.9322

          k = 0.4833 0.2791 0.0000 (  2276 PWs)   bands (ev):

   -16.1130 -14.8526  -8.1595  -4.1216   0.0190   5.6929   8.6980   9.4606
     9.6864   9.7687  10.5046  10.7747  11.4718  12.3895  12.5183  13.4126

          k = 0.4667 0.2694 0.0000 (  2268 PWs)   bands (ev):

   -16.3634 -14.5729  -8.1399  -4.2444   0.1727   5.7026   8.1974   8.9608
     9.1935  10.2934  10.8912  11.1747  11.3325  11.8989  12.9592  13.9354

          k = 0.4500 0.2598 0.0000 (  2278 PWs)   bands (ev):

   -16.6578 -14.2299  -8.1074  -4.4309   0.4102   5.7186   7.7117   8.4745
     8.7017  10.5284  10.8430  11.4204  11.6294  11.9088  13.3439  14.3031

          k = 0.4333 0.2502 0.0000 (  2278 PWs)   bands (ev):

   -16.9626 -13.8572  -8.0619  -4.6628   0.7131   5.7405   7.2424   8.0035
     8.2269  10.0894  10.9522  11.4064  12.1621  12.4965  13.4701  14.3628

          k = 0.4167 0.2406 0.0000 (  2282 PWs)   bands (ev):

   -17.2664 -13.4666  -8.0037  -4.9240   1.0647   5.7670   6.7907   7.5488
     7.7697   9.6567  10.5073  11.9609  12.6318  13.0979  13.3551  14.6760

          k = 0.4000 0.2309 0.0000 (  2290 PWs)   bands (ev):

   -17.5643 -13.0632  -7.9329  -5.2025   1.4523   5.7948   6.3601   7.1109
     7.3305   9.2361  10.0766  12.5055  12.7164  13.5258  13.7101  14.2680

          k = 0.3833 0.2213 0.0000 (  2284 PWs)   bands (ev):

   -17.8540 -12.6499  -7.8499  -5.4894   1.8663   5.7883   5.9854   6.6901
     6.9101   8.8296   9.6622  12.4573  13.0194  13.8698  14.0059  14.3357

          k = 0.3667 0.2117 0.0000 (  2274 PWs)   bands (ev):

   -18.1341 -12.2284  -7.7549  -5.7787   2.2995   5.5000   5.9114   6.2868
     6.5111   8.4383   9.2647  12.1379  13.4191  13.5448  14.5141  14.9642

          k = 0.3500 0.2021 0.0000 (  2268 PWs)   bands (ev):

   -18.4038 -11.8003  -7.6483  -6.0660   2.7461   5.1251   5.9014   5.9211
     6.1549   8.0627   8.8844  11.8099  13.1084  13.8441  14.9738  15.0702

          k = 0.3333 0.1925 0.0000 (  2272 PWs)   bands (ev):

   -18.6626 -11.3668  -7.5305  -6.3480   3.2011   4.7602   5.5348   5.7114
     6.0475   7.7035   8.5214  11.4857  12.7574  14.0597  14.5146  15.3225

          k = 0.3167 0.1828 0.0000 (  2270 PWs)   bands (ev):

   -18.9101 -10.9291  -7.4022  -6.6227   3.6591   4.4111   5.1887   5.3753
     6.0895   7.3611   8.1762  11.1704  12.4207  13.9489  14.1265  15.5027

          k = 0.3000 0.1732 0.0000 (  2268 PWs)   bands (ev):

   -19.1459 -10.4887  -7.2638  -6.8881   4.0790   4.1073   4.8722   5.0459
     6.1458   7.0361   7.8491  10.8665  12.0998  13.3787  14.0659  15.5193

          k = 0.2833 0.1636 0.0000 (  2268 PWs)   bands (ev):

   -19.3698 -10.0468  -7.1430  -7.1162   3.7644   4.4004   4.7275   4.7320
     6.2056   6.7290   7.5406  10.5756  11.7952  12.8086  13.9139  15.4301

          k = 0.2667 0.1540 0.0000 (  2276 PWs)   bands (ev):

   -19.5817  -9.6050  -7.3864  -6.9602   3.4674   4.1946   4.4352   5.0935
     6.2650   6.4420   7.2518  10.2989  11.5073  12.2429  13.7026  15.2859

          k = 0.2500 0.1443 0.0000 (  2278 PWs)   bands (ev):

   -19.7814  -9.1650  -7.6174  -6.7968   3.1882   3.9270   4.1559   5.5216
     6.1841   6.3193   6.9859  10.0370  11.2363  11.6854  13.4550  15.1160

          k = 0.2333 0.1347 0.0000 (  2282 PWs)   bands (ev):

   -19.9686  -8.7288  -7.8355  -6.6272   2.9267   3.6692   3.8945   5.7929
     6.0997   6.3557   6.7541   9.7906  10.9822  11.1398  13.1873  14.9364

          k = 0.2167 0.1251 0.0000 (  2268 PWs)   bands (ev):

   -20.1434  -8.2985  -8.0401  -6.4526   2.6832   3.4270   3.6510   5.6273
     6.3237   6.4606   6.6055   9.5601  10.6092  10.7452  12.9109  14.7562

          k = 0.2000 0.1155 0.0000 (  2272 PWs)   bands (ev):

   -20.3056  -8.2308  -7.8765  -6.2748   2.4576   3.2019   3.4253   5.4157
     6.1759   6.5853   6.8715   9.3458  10.0968  10.5253  12.6342  14.5807

          k = 0.1833 0.1058 0.0000 (  2276 PWs)   bands (ev):

   -20.4551  -8.4072  -7.4657  -6.0954   2.2500   2.9944   3.2177   5.2148
     5.9927   6.6115   7.2725   9.1480   9.6057  10.3226  12.3644  14.4133

          k = 0.1667 0.0962 0.0000 (  2280 PWs)   bands (ev):

   -20.5918  -8.5690  -7.0691  -5.9167   2.0604   2.8046   3.0281   5.0294
     5.8144   6.6422   7.6553   8.9671   9.1393  10.1370  12.1071  14.2565

          k = 0.1500 0.0866 0.0000 (  2276 PWs)   bands (ev):

   -20.7157  -8.7160  -6.6903  -5.7409   1.8888   2.6328   2.8565   4.8610
     5.6496   6.6673   8.0155   8.7008   8.8033   9.9687  11.8673  14.1117

          k = 0.1333 0.0770 0.0000 (  2276 PWs)   bands (ev):

   -20.8267  -8.8481  -6.3330  -5.5706   1.7352   2.4789   2.7030   4.7099
     5.5008   6.6834   8.2938   8.3480   8.6581   9.8177  11.6489  13.9801

          k = 0.1167 0.0674 0.0000 (  2276 PWs)   bands (ev):

   -20.9248  -8.9649  -6.0016  -5.4089   1.5997   2.3430   2.5676   4.5763
     5.3689   6.6892   7.9217   8.5163   8.6650   9.6839  11.4553  13.8626

          k = 0.1000 0.0577 0.0000 (  2282 PWs)   bands (ev):

   -21.0098  -9.0664  -5.7005  -5.2589   1.4822   2.2252   2.4501   4.4604
     5.2543   6.6852   7.5880   8.4091   8.9322   9.5675  11.2885  13.7597

          k = 0.0833 0.0481 0.0000 (  2286 PWs)   bands (ev):

   -21.0819  -9.1525  -5.4346  -5.1241   1.3828   2.1255   2.3508   4.3622
     5.1572   6.6729   7.2971   8.3141   9.1687   9.4687  11.1497  13.6720

          k = 0.0667 0.0385 0.0000 (  2282 PWs)   bands (ev):

   -21.1408  -9.2231  -5.2085  -5.0077   1.3015   2.0439   2.2695   4.2818
     5.0777   6.6553   7.0525   8.2360   9.3673   9.3876  11.0387  13.5997

          k = 0.0500 0.0289 0.0000 (  2279 PWs)   bands (ev):

   -21.1867  -9.2780  -5.0270  -4.9130   1.2382   1.9805   2.2063   4.2193
     5.0158   6.6358   6.8581   8.1751   9.3243   9.5248  10.9547  13.5433

          k = 0.0333 0.0192 0.0000 (  2285 PWs)   bands (ev):

   -21.2195  -9.3173  -4.8941  -4.8431   1.1930   1.9351   2.1612   4.1746
     4.9717   6.6182   6.7166   8.1316   9.2789   9.6391  10.8961  13.5028

          k = 0.0167 0.0096 0.0000 (  2291 PWs)   bands (ev):

   -21.2392  -9.3409  -4.8129  -4.8001   1.1659   1.9079   2.1341   4.1478
     4.9452   6.6061   6.6306   8.1054   9.2517   9.7083  10.8617  13.4784

          k = 0.0000 0.0000 0.0000 (  2289 PWs)   bands (ev):

   -21.2458  -9.3488  -4.7856  -4.7856   1.1569   1.8988   2.1251   4.1388
     4.9363   6.6019   6.6019   8.0967   9.2426   9.7315  10.8504  13.4703

     Writing all to output data dir ../tmp/gr.save/

     init_run     :      0.26s CPU      0.29s WALL (       1 calls)
     electrons    :     41.56s CPU     42.56s WALL (       1 calls)

     Called by init_run:
     wfcinit      :      0.00s CPU      0.01s WALL (       1 calls)
     potinit      :      0.01s CPU      0.03s WALL (       1 calls)
     hinit0       :      0.23s CPU      0.23s WALL (       1 calls)

     Called by electrons:
     c_bands      :     41.56s CPU     42.56s WALL (       1 calls)
     v_of_rho     :      0.00s CPU      0.01s WALL (       1 calls)
     newd         :      0.00s CPU      0.01s WALL (       1 calls)

     Called by c_bands:
     init_us_2    :      0.02s CPU      0.02s WALL (      91 calls)
     init_us_2:cp :      0.02s CPU      0.02s WALL (      91 calls)
     cegterg      :     40.38s CPU     40.46s WALL (     250 calls)

     Called by *egterg:
     cdiaghg      :      0.89s CPU      0.89s WALL (    4308 calls)
     h_psi        :     24.03s CPU     24.10s WALL (    4558 calls)
     s_psi        :      1.35s CPU      1.35s WALL (    4558 calls)
     g_psi        :      0.27s CPU      0.28s WALL (    4217 calls)

     Called by h_psi:
     h_psi:calbec :      1.36s CPU      1.36s WALL (    4558 calls)
     vloc_psi     :     21.25s CPU     21.31s WALL (    4558 calls)
     add_vuspsi   :      1.33s CPU      1.33s WALL (    4558 calls)

     General routines
     calbec       :      1.35s CPU      1.36s WALL (    4558 calls)
     fft          :      0.15s CPU      0.15s WALL (      12 calls)
     fftw         :     19.11s CPU     19.17s WALL (   90304 calls)
     davcio       :      0.02s CPU      0.87s WALL (     182 calls)


     PWSCF        :     41.95s CPU     44.63s WALL


   This run was terminated on:  18:55:57  25Aug2023            

=------------------------------------------------------------------------------=
   JOB DONE.
=------------------------------------------------------------------------------=
