
     Program PWSCF v.6.4.1 starts on 19Aug2023 at 22:55:53 

     This program is part of the open-source Quantum ESPRESSO suite
     for quantum simulation of materials; please cite
         "P. Giannozzi et al., J. Phys.:Condens. Matter 21 395502 (2009);
         "P. Giannozzi et al., J. Phys.:Condens. Matter 29 465901 (2017);
          URL http://www.quantum-espresso.org", 
     in publications or presentations arising from this work. More details at
     http://www.quantum-espresso.org/quote

     Parallel version (MPI & OpenMP), running on      16 processor cores
     Number of MPI processes:                 1
     Threads/MPI process:                    16

     MPI processes distributed on     1 nodes
     Waiting for input...
     Reading input from standard input

     Current dimensions of program PWSCF are:
     Max number of different atomic species (ntypx) = 10
     Max number of k-points (npk) =  40000
     Max angular momentum in pseudopotentials (lmaxx) =  3

     Subspace diagonalization in iterative solution of the eigenvalue problem:
     a serial algorithm will be used


     G-vector sticks info
     --------------------
     sticks:   dense  smooth     PW     G-vecs:    dense   smooth      PW
     Sum         151     151     55                 5279     5279    1021



     bravais-lattice index     =            4
     lattice parameter (alat)  =       4.6620  a.u.
     unit-cell volume          =     308.9124 (a.u.)^3
     number of atoms/cell      =            4
     number of atomic types    =            1
     number of electrons       =        16.00
     number of Kohn-Sham states=            8
     kinetic-energy cutoff     =      25.0000  Ry
     charge density cutoff     =     100.0000  Ry
     convergence threshold     =      1.0E-06
     mixing beta               =       0.7000
     number of iterations used =            8  plain     mixing
     Exchange-correlation      = SLA PZ NOGX NOGC ( 1  1  0  0 0 0)

     celldm(1)=   4.661954  celldm(2)=   0.000000  celldm(3)=   3.520470
     celldm(4)=   0.000000  celldm(5)=   0.000000  celldm(6)=   0.000000

     crystal axes: (cart. coord. in units of alat)
               a(1) = (   1.000000   0.000000   0.000000 )  
               a(2) = (  -0.500000   0.866025   0.000000 )  
               a(3) = (   0.000000   0.000000   3.520470 )  

     reciprocal axes: (cart. coord. in units 2 pi/alat)
               b(1) = (  1.000000  0.577350 -0.000000 )  
               b(2) = (  0.000000  1.154701  0.000000 )  
               b(3) = (  0.000000 -0.000000  0.284053 )  


     PseudoPot. # 1 for C  read from file:
     .\C.pz-vbc.UPF
     MD5 check sum: f697e42eaa1e52b77fcf7925dd36a1dd
     Pseudo is Norm-conserving, Zval =  4.0
     Generated by new atomic code, or converted to UPF format
     Using radial grid of  269 points,  1 beta functions with: 
                l(1) =   0

     atomic species   valence    mass     pseudopotential
        C              4.00    12.01100     C ( 1.00)

      8 Sym. Ops., with inversion, found ( 4 have fractional translation)



   Cartesian axes

     site n.     atom                  positions (alat units)
         1           C   tau(   1) = (   0.0000000   0.0000000   2.6403527  )
         2           C   tau(   2) = (   0.0000000   0.0000000   0.8801176  )
         3           C   tau(   3) = (  -0.0000500   0.5773791   2.6403527  )
         4           C   tau(   4) = (   0.5000500   0.2886463   0.8801176  )

     number of k points=    21
                       cart. coord. in units 2pi/alat
        k(    1) = (   0.0000000   0.0000000   0.0000000), wk =   0.0312500
        k(    2) = (   0.0000000   0.0000000   0.0710132), wk =   0.0625000
        k(    3) = (   0.0000000   0.0000000  -0.1420265), wk =   0.0312500
        k(    4) = (   0.0000000   0.2886751   0.0000000), wk =   0.1250000
        k(    5) = (   0.0000000   0.2886751   0.0710132), wk =   0.2500000
        k(    6) = (   0.0000000   0.2886751  -0.1420265), wk =   0.1250000
        k(    7) = (   0.0000000  -0.5773503   0.0000000), wk =   0.0625000
        k(    8) = (   0.0000000  -0.5773503   0.0710132), wk =   0.1250000
        k(    9) = (   0.0000000  -0.5773503  -0.1420265), wk =   0.0625000
        k(   10) = (   0.2500000   0.4330127   0.0000000), wk =   0.0625000
        k(   11) = (   0.2500000   0.4330127   0.0710132), wk =   0.1250000
        k(   12) = (   0.2500000   0.4330127  -0.1420265), wk =   0.0625000
        k(   13) = (   0.2500000  -0.1443376   0.0000000), wk =   0.0625000
        k(   14) = (   0.2500000  -0.1443376  -0.0710132), wk =   0.1250000
        k(   15) = (   0.2500000  -0.1443376   0.1420265), wk =   0.0625000
        k(   16) = (  -0.5000000   0.2886751   0.0000000), wk =   0.0312500
        k(   17) = (  -0.5000000   0.2886751  -0.0710132), wk =   0.0625000
        k(   18) = (  -0.5000000   0.2886751   0.1420265), wk =   0.0312500
        k(   19) = (  -0.2500000   0.4330127   0.0000000), wk =   0.1250000
        k(   20) = (  -0.2500000   0.4330127  -0.0710132), wk =   0.2500000
        k(   21) = (  -0.2500000   0.4330127   0.1420265), wk =   0.1250000

     Dense  grid:     5279 G-vectors     FFT dimensions: (  15,  15,  54)

     Estimated max dynamical RAM per process >       5.51 MB

     Initial potential from superposition of free atoms

     starting charge   15.99989, renormalised to   16.00000
     Starting wfcs are   16 randomized atomic wfcs

     total cpu time spent up to now is        1.2 secs

     Self-consistent Calculation

     iteration #  1     ecut=    25.00 Ry     beta= 0.70
     Davidson diagonalization with overlap
     ethr =  1.00E-02,  avg # of iterations =  2.0

     total cpu time spent up to now is        2.1 secs

     total energy              =     -44.78534496 Ry
     Harris-Foulkes estimate   =     -44.97308633 Ry
     estimated scf accuracy    <       0.32200298 Ry

     iteration #  2     ecut=    25.00 Ry     beta= 0.70
     Davidson diagonalization with overlap
     ethr =  2.01E-03,  avg # of iterations =  2.0

     total cpu time spent up to now is        3.0 secs

     total energy              =     -44.83460367 Ry
     Harris-Foulkes estimate   =     -44.83618700 Ry
     estimated scf accuracy    <       0.00622329 Ry

     iteration #  3     ecut=    25.00 Ry     beta= 0.70
     Davidson diagonalization with overlap
     ethr =  3.89E-05,  avg # of iterations =  1.9

     total cpu time spent up to now is        3.7 secs

     total energy              =     -44.83489961 Ry
     Harris-Foulkes estimate   =     -44.83498757 Ry
     estimated scf accuracy    <       0.00043107 Ry

     iteration #  4     ecut=    25.00 Ry     beta= 0.70
     Davidson diagonalization with overlap
     ethr =  2.69E-06,  avg # of iterations =  1.7

     total cpu time spent up to now is        4.5 secs

     End of self-consistent calculation

          k = 0.0000 0.0000 0.0000 (   675 PWs)   bands (ev):

   -15.1546 -15.1150  -3.5286  -2.9994   1.5121   1.5165   1.5497   1.5541

          k = 0.0000 0.0000 0.0710 (   662 PWs)   bands (ev):

   -15.1482 -15.0961  -3.3894  -3.0700   1.5208   1.5253   1.5727   1.5771

          k = 0.0000 0.0000-0.1420 (   650 PWs)   bands (ev):

   -15.1267 -15.1267  -3.2240  -3.2240   1.6078   1.6078   1.6122   1.6122

          k = 0.0000 0.2887 0.0000 (   648 PWs)   bands (ev):

   -13.6365 -13.6155  -3.0407  -2.9903  -1.6709  -1.2348  -0.5393  -0.5004

          k = 0.0000 0.2887 0.0710 (   652 PWs)   bands (ev):

   -13.6434 -13.6341  -3.0062  -3.0015  -1.6178  -1.3052  -0.5343  -0.5093

          k = 0.0000 0.2887-0.1420 (   658 PWs)   bands (ev):

   -13.6454 -13.6454  -2.9999  -2.9999  -1.4731  -1.4731  -0.5389  -0.5389

          k = 0.0000-0.5774 0.0000 (   654 PWs)   bands (ev):

    -9.8698  -9.8210  -8.9733  -8.9278  -1.9732  -1.8858   2.2013   2.3383

          k = 0.0000-0.5774 0.0710 (   650 PWs)   bands (ev):

    -9.8403  -9.8262  -8.9266  -8.9184  -1.9280  -1.8878   2.1631   2.2761

          k = 0.0000-0.5774-0.1420 (   664 PWs)   bands (ev):

    -9.8444  -9.8444  -8.9350  -8.9350  -1.9414  -1.9414   2.1952   2.1952

          k = 0.2500 0.4330 0.0000 (   654 PWs)   bands (ev):

   -10.8266 -10.8152  -6.1142  -6.1103  -4.6288  -4.5969   1.6389   1.9915

          k = 0.2500 0.4330 0.0710 (   658 PWs)   bands (ev):

   -10.8291 -10.8170  -6.1365  -6.1235  -4.6164  -4.6038   1.6617   1.9174

          k = 0.2500 0.4330-0.1420 (   642 PWs)   bands (ev):

   -10.7909 -10.7909  -6.1118  -6.1118  -4.5905  -4.5905   1.8198   1.8198

          k = 0.2500-0.1443 0.0000 (   648 PWs)   bands (ev):

   -13.6365 -13.6155  -3.0424  -2.9919  -1.6708  -1.2346  -0.5373  -0.4984

          k = 0.2500-0.1443-0.0710 (   652 PWs)   bands (ev):

   -13.6434 -13.6341  -3.0078  -3.0032  -1.6177  -1.3051  -0.5323  -0.5073

          k = 0.2500-0.1443 0.1420 (   658 PWs)   bands (ev):

   -13.6454 -13.6454  -3.0015  -3.0015  -1.4729  -1.4729  -0.5369  -0.5369

          k =-0.5000 0.2887 0.0000 (   654 PWs)   bands (ev):

    -9.8691  -9.8203  -8.9752  -8.9295  -1.9716  -1.8843   2.2028   2.3398

          k =-0.5000 0.2887-0.0710 (   650 PWs)   bands (ev):

    -9.8396  -9.8255  -8.9283  -8.9202  -1.9264  -1.8863   2.1646   2.2776

          k =-0.5000 0.2887 0.1420 (   664 PWs)   bands (ev):

    -9.8436  -9.8436  -8.9367  -8.9367  -1.9398  -1.9398   2.1967   2.1967

          k =-0.2500 0.4330 0.0000 (   654 PWs)   bands (ev):

   -10.8266 -10.8152  -6.1156  -6.1118  -4.6272  -4.5953   1.6394   1.9920

          k =-0.2500 0.4330-0.0710 (   658 PWs)   bands (ev):

   -10.8291 -10.8170  -6.1379  -6.1250  -4.6148  -4.6023   1.6623   1.9180

          k =-0.2500 0.4330 0.1420 (   642 PWs)   bands (ev):

   -10.7909 -10.7909  -6.1133  -6.1133  -4.5889  -4.5889   1.8204   1.8204

     highest occupied level (ev):     2.3398

!    total energy              =     -44.83493427 Ry
     Harris-Foulkes estimate   =     -44.83493465 Ry
     estimated scf accuracy    <       0.00000096 Ry

     The total energy is the sum of the following terms:

     one-electron contribution =     -33.45811103 Ry
     hartree contribution      =      22.95559825 Ry
     xc contribution           =     -13.75804894 Ry
     ewald contribution        =     -20.57437254 Ry

     convergence has been achieved in   4 iterations

     Writing output data file pwscf.save\

     init_run     :      1.33s CPU      0.52s WALL (       1 calls)
     electrons    :      8.67s CPU      3.35s WALL (       1 calls)

     Called by init_run:
     wfcinit      :      1.27s CPU      0.49s WALL (       1 calls)
     potinit      :      0.05s CPU      0.01s WALL (       1 calls)
     hinit0       :      0.02s CPU      0.02s WALL (       1 calls)

     Called by electrons:
     c_bands      :      6.77s CPU      2.64s WALL (       4 calls)
     sum_band     :      1.89s CPU      0.69s WALL (       4 calls)
     v_of_rho     :      0.05s CPU      0.01s WALL (       5 calls)
     mix_rho      :      0.00s CPU      0.00s WALL (       4 calls)

     Called by c_bands:
     init_us_2    :      0.08s CPU      0.06s WALL (     189 calls)
     cegterg      :      6.59s CPU      2.56s WALL (      84 calls)

     Called by sum_band:

     Called by *egterg:
     h_psi        :      7.20s CPU      2.79s WALL (     265 calls)
     g_psi        :      0.08s CPU      0.05s WALL (     160 calls)
     cdiaghg      :      0.02s CPU      0.02s WALL (     244 calls)

     Called by h_psi:
     h_psi:pot    :      7.02s CPU      2.69s WALL (     265 calls)
     h_psi:calbec :      0.03s CPU      0.00s WALL (     265 calls)
     vloc_psi     :      6.98s CPU      2.68s WALL (     265 calls)
     add_vuspsi   :      0.00s CPU      0.01s WALL (     265 calls)

     General routines
     calbec       :      0.03s CPU      0.00s WALL (     265 calls)
     fft          :      0.02s CPU      0.00s WALL (      14 calls)
     ffts         :      0.00s CPU      0.00s WALL (       4 calls)
     fftw         :      0.67s CPU      0.18s WALL (    4758 calls)

     Parallel routines

     PWSCF        :     10.52s CPU      4.72s WALL


   This run was terminated on:  22:55:57  19Aug2023            

=------------------------------------------------------------------------------=
   JOB DONE.
=------------------------------------------------------------------------------=
