
     Program PWSCF v.7.0 starts on 24Aug2023 at 18:39:27 

     This program is part of the open-source Quantum ESPRESSO suite
     for quantum simulation of materials; please cite
         "P. Giannozzi et al., J. Phys.:Condens. Matter 21 395502 (2009);
         "P. Giannozzi et al., J. Phys.:Condens. Matter 29 465901 (2017);
         "P. Giannozzi et al., J. Chem. Phys. 152 154105 (2020);
          URL http://www.quantum-espresso.org", 
     in publications or presentations arising from this work. More details at
     http://www.quantum-espresso.org/quote

     Serial version
     6294 MiB available memory on the printing compute node when the environment starts

     Waiting for input...
     Reading input from standard input

     Current dimensions of program PWSCF are:
     Max number of different atomic species (ntypx) = 10
     Max number of k-points (npk) =  40000
     Max angular momentum in pseudopotentials (lmaxx) =  4

     G-vector sticks info
     --------------------
     sticks:   dense  smooth     PW     G-vecs:    dense   smooth      PW
     Sum         361     361    109                22353    22353    3857

     Using Slab Decomposition



     bravais-lattice index     =            4
     lattice parameter (alat)  =       4.6531  a.u.
     unit-cell volume          =     354.3310 (a.u.)^3
     number of atoms/cell      =            2
     number of atomic types    =            1
     number of electrons       =         8.00
     number of Kohn-Sham states=            8
     kinetic-energy cutoff     =      60.0000  Ry
     charge density cutoff     =     240.0000  Ry
     scf convergence threshold =      1.0E-09
     mixing beta               =       0.7000
     number of iterations used =            8  plain     mixing
     energy convergence thresh.=      1.0E-05
     force convergence thresh. =      1.0E-04
     Exchange-correlation= PBE
                           (   1   4   3   4   0   0   0)
     nstep                     =           50


     celldm(1)=   4.653073  celldm(2)=   0.000000  celldm(3)=   4.061244
     celldm(4)=   0.000000  celldm(5)=   0.000000  celldm(6)=   0.000000

     crystal axes: (cart. coord. in units of alat)
               a(1) = (   1.000000   0.000000   0.000000 )  
               a(2) = (  -0.500000   0.866025   0.000000 )  
               a(3) = (   0.000000   0.000000   4.061244 )  

     reciprocal axes: (cart. coord. in units 2 pi/alat)
               b(1) = (  1.000000  0.577350 -0.000000 )  
               b(2) = (  0.000000  1.154701  0.000000 )  
               b(3) = (  0.000000 -0.000000  0.246230 )  


     PseudoPot. # 1 for C  read from file:
     ../pseudo/C.pbe-n-rrkjus_psl.0.1.UPF
     MD5 check sum: 96a6a315177d77e6c95bf6fd3870f9e3
     Pseudo is Ultrasoft + core correction, Zval =  4.0
     Generated using &quot;atomic&quot; code by A. Dal Corso  v.6.3MaX
     Using radial grid of 1073 points,  4 beta functions with: 
                l(1) =   0
                l(2) =   0
                l(3) =   1
                l(4) =   1
     Q(r) pseudized with 0 coefficients 


     atomic species   valence    mass     pseudopotential
        C              4.00    12.01070     C ( 1.00)

      6 Sym. Ops. (no inversion) found



   Cartesian axes

     site n.     atom                  positions (alat units)
         1           C   tau(   1) = (   0.0000000   0.5773503   2.0306218  )
         2           C   tau(   2) = (   0.5000000   0.2886751   1.6244974  )

     number of k points=    19  Marzari-Vanderbilt smearing, width (Ry)=  0.0200
                       cart. coord. in units 2pi/alat
        k(    1) = (   0.0000000   0.0000000   0.0000000), wk =   0.0138889
        k(    2) = (   0.0000000   0.0962250   0.0000000), wk =   0.0833333
        k(    3) = (   0.0000000   0.1924501   0.0000000), wk =   0.0833333
        k(    4) = (   0.0000000   0.2886751   0.0000000), wk =   0.0833333
        k(    5) = (   0.0000000   0.3849002   0.0000000), wk =   0.0833333
        k(    6) = (   0.0000000   0.4811252   0.0000000), wk =   0.0833333
        k(    7) = (   0.0000000  -0.5773503   0.0000000), wk =   0.0416667
        k(    8) = (   0.0833333   0.1443376   0.0000000), wk =   0.0833333
        k(    9) = (   0.0833333   0.2405626   0.0000000), wk =   0.1666667
        k(   10) = (   0.0833333   0.3367877   0.0000000), wk =   0.1666667
        k(   11) = (   0.0833333   0.4330127   0.0000000), wk =   0.1666667
        k(   12) = (   0.0833333   0.5292377   0.0000000), wk =   0.1666667
        k(   13) = (   0.1666667   0.2886751   0.0000000), wk =   0.0833333
        k(   14) = (   0.1666667   0.3849002   0.0000000), wk =   0.1666667
        k(   15) = (   0.1666667   0.4811252   0.0000000), wk =   0.1666667
        k(   16) = (   0.1666667   0.5773503   0.0000000), wk =   0.0833333
        k(   17) = (   0.2500000   0.4330127   0.0000000), wk =   0.0833333
        k(   18) = (   0.2500000   0.5292377   0.0000000), wk =   0.1666667
        k(   19) = (   0.3333333   0.5773503   0.0000000), wk =   0.0277778

     Dense  grid:    22353 G-vectors     FFT dimensions: (  24,  24,  96)

     Estimated max dynamical RAM per process >      37.12 MB

     Check: negative core charge=   -0.000004

     Initial potential from superposition of free atoms

     starting charge       7.9999, renormalised to       8.0000

     negative rho (up, down):  5.103E-06 0.000E+00
     Starting wfcs are    8 randomized atomic wfcs

     total cpu time spent up to now is        0.9 secs

     Self-consistent Calculation

     iteration #  1     ecut=    60.00 Ry     beta= 0.70
     Davidson diagonalization with overlap
     ethr =  1.00E-02,  avg # of iterations =  2.0

     Threshold (ethr) on eigenvalues was too large:
     Diagonalizing with lowered threshold

     Davidson diagonalization with overlap
     c_bands:  1 eigenvalues not converged
     c_bands:  1 eigenvalues not converged
     c_bands:  1 eigenvalues not converged
     c_bands:  1 eigenvalues not converged
     ethr =  7.23E-05,  avg # of iterations = 15.9

     negative rho (up, down):  1.797E-06 0.000E+00

     total cpu time spent up to now is        3.5 secs

     total energy              =     -23.38313299 Ry
     estimated scf accuracy    <       0.03224064 Ry

     iteration #  2     ecut=    60.00 Ry     beta= 0.70
     Davidson diagonalization with overlap
     ethr =  4.03E-04,  avg # of iterations =  2.5

     negative rho (up, down):  6.176E-08 0.000E+00

     total cpu time spent up to now is        4.0 secs

     total energy              =     -23.39179772 Ry
     estimated scf accuracy    <       0.00779813 Ry

     iteration #  3     ecut=    60.00 Ry     beta= 0.70
     Davidson diagonalization with overlap
     ethr =  9.75E-05,  avg # of iterations =  3.7

     total cpu time spent up to now is        4.6 secs

     total energy              =     -23.39367251 Ry
     estimated scf accuracy    <       0.00020605 Ry

     iteration #  4     ecut=    60.00 Ry     beta= 0.70
     Davidson diagonalization with overlap
     c_bands:  1 eigenvalues not converged
     c_bands:  3 eigenvalues not converged
     c_bands:  3 eigenvalues not converged
     c_bands:  1 eigenvalues not converged
     c_bands:  2 eigenvalues not converged
     c_bands:  1 eigenvalues not converged
     ethr =  2.58E-06,  avg # of iterations = 14.6

     total cpu time spent up to now is        6.3 secs

     total energy              =     -23.39427359 Ry
     estimated scf accuracy    <       0.00059961 Ry

     iteration #  5     ecut=    60.00 Ry     beta= 0.70
     Davidson diagonalization with overlap
     c_bands:  3 eigenvalues not converged
     c_bands:  3 eigenvalues not converged
     c_bands:  1 eigenvalues not converged
     ethr =  2.58E-06,  avg # of iterations =  5.4

     negative rho (up, down):  1.219E-08 0.000E+00

     total cpu time spent up to now is        6.9 secs

     total energy              =     -23.39431523 Ry
     estimated scf accuracy    <       0.00005983 Ry

     iteration #  6     ecut=    60.00 Ry     beta= 0.70
     Davidson diagonalization with overlap
     c_bands:  2 eigenvalues not converged
     c_bands:  2 eigenvalues not converged
     ethr =  7.48E-07,  avg # of iterations =  5.4

     total cpu time spent up to now is        7.6 secs

     total energy              =     -23.39431075 Ry
     estimated scf accuracy    <       0.00007844 Ry

     iteration #  7     ecut=    60.00 Ry     beta= 0.70
     Davidson diagonalization with overlap
     c_bands:  2 eigenvalues not converged
     c_bands:  2 eigenvalues not converged
     ethr =  7.48E-07,  avg # of iterations =  3.7

     total cpu time spent up to now is        8.3 secs

     total energy              =     -23.39431838 Ry
     estimated scf accuracy    <       0.00000039 Ry

     iteration #  8     ecut=    60.00 Ry     beta= 0.70
     Davidson diagonalization with overlap
     c_bands:  1 eigenvalues not converged
     ethr =  4.85E-09,  avg # of iterations = 10.3

     negative rho (up, down):  1.032E-08 0.000E+00

     total cpu time spent up to now is        9.6 secs

     total energy              =     -23.39432259 Ry
     estimated scf accuracy    <       0.00000118 Ry

     iteration #  9     ecut=    60.00 Ry     beta= 0.70
     Davidson diagonalization with overlap
     c_bands:  1 eigenvalues not converged
     ethr =  4.85E-09,  avg # of iterations =  4.5

     negative rho (up, down):  1.052E-08 0.000E+00

     total cpu time spent up to now is       10.3 secs

     total energy              =     -23.39432279 Ry
     estimated scf accuracy    <       0.00000009 Ry

     iteration # 10     ecut=    60.00 Ry     beta= 0.70
     Davidson diagonalization with overlap
     ethr =  1.17E-09,  avg # of iterations =  3.0

     negative rho (up, down):  1.057E-08 0.000E+00

     total cpu time spent up to now is       10.9 secs

     total energy              =     -23.39432282 Ry
     estimated scf accuracy    <       0.00000001 Ry

     iteration # 11     ecut=    60.00 Ry     beta= 0.70
     Davidson diagonalization with overlap
     ethr =  1.74E-10,  avg # of iterations =  4.6

     negative rho (up, down):  1.060E-08 0.000E+00

     total cpu time spent up to now is       11.7 secs

     total energy              =     -23.39432283 Ry
     estimated scf accuracy    <       0.00000001 Ry

     iteration # 12     ecut=    60.00 Ry     beta= 0.70
     Davidson diagonalization with overlap
     ethr =  1.74E-10,  avg # of iterations =  1.3

     negative rho (up, down):  1.059E-08 0.000E+00

     total cpu time spent up to now is       12.2 secs

     total energy              =     -23.39432283 Ry
     estimated scf accuracy    <          9.2E-09 Ry

     iteration # 13     ecut=    60.00 Ry     beta= 0.70
     Davidson diagonalization with overlap
     ethr =  1.16E-10,  avg # of iterations =  2.0

     negative rho (up, down):  1.053E-08 0.000E+00

     total cpu time spent up to now is       12.7 secs

     End of self-consistent calculation

          k = 0.0000 0.0000 0.0000 (  2759 PWs)   bands (ev):

   -18.7960  -9.0168  -2.7027   0.4267   0.4267   3.7948   4.4969   5.5311

          k = 0.0000 0.0962 0.0000 (  2774 PWs)   bands (ev):

   -18.6142  -8.8426  -2.5595  -0.4428   0.0889   4.0036   4.7157   5.3915

          k = 0.0000 0.1925 0.0000 (  2786 PWs)   bands (ev):

   -18.0709  -8.3258  -2.5067  -2.1431  -0.6759   4.5013   5.0141   5.3901

          k = 0.0000 0.2887 0.0000 (  2772 PWs)   bands (ev):

   -17.1729  -7.4892  -4.9771  -1.6339  -1.5040   4.0071   5.8260   6.4464

          k = 0.0000 0.3849 0.0000 (  2782 PWs)   bands (ev):

   -15.9370  -7.5510  -6.3268  -2.1876  -1.3597   3.4312   6.5381   7.1814

          k = 0.0000 0.4811 0.0000 (  2776 PWs)   bands (ev):

   -14.4205  -9.8843  -5.0451  -2.6274  -1.8487   3.5917   6.0562   6.5299

          k = 0.0000-0.5774 0.0000 (  2804 PWs)   bands (ev):

   -13.2160 -11.3735  -4.1456  -2.7783  -2.5535   4.1356   5.2077   6.5154

          k = 0.0833 0.1443 0.0000 (  2777 PWs)   bands (ev):

   -18.2517  -8.4971  -2.2897  -1.7404  -0.6431   4.3952   5.1551   5.2984

          k = 0.0833 0.2406 0.0000 (  2778 PWs)   bands (ev):

   -17.5308  -7.8191  -3.8071  -1.8534  -1.6615   4.6058   5.4801   6.0120

          k = 0.0833 0.3368 0.0000 (  2785 PWs)   bands (ev):

   -16.4624  -6.8772  -6.1870  -2.5955  -1.3730   3.9916   6.0855   6.7356

          k = 0.0833 0.4330 0.0000 (  2781 PWs)   bands (ev):

   -15.0756  -8.6728  -5.5861  -3.2163  -1.4468   3.6528   6.0193   7.2791

          k = 0.0833 0.5292 0.0000 (  2789 PWs)   bands (ev):

   -13.5204 -10.7710  -4.3660  -3.5029  -2.2267   3.9085   5.8540   6.4972

          k = 0.1667 0.2887 0.0000 (  2782 PWs)   bands (ev):

   -16.6388  -7.0098  -5.3759  -3.2859  -1.3941   4.6887   5.4642   6.5715

          k = 0.1667 0.3849 0.0000 (  2786 PWs)   bands (ev):

   -15.4130  -7.4462  -5.8475  -4.4596  -1.2197   4.2644   5.1838   8.0625

          k = 0.1667 0.4811 0.0000 (  2774 PWs)   bands (ev):

   -13.9106  -9.5648  -5.1527  -4.5406  -1.6646   3.6716   5.6331   7.6332

          k = 0.1667 0.5774 0.0000 (  2774 PWs)   bands (ev):

   -12.7050 -11.0050  -5.3322  -3.6675  -2.3226   3.4793   6.3161   6.8173

          k = 0.2500 0.4330 0.0000 (  2770 PWs)   bands (ev):

   -14.0575  -8.7163  -6.1210  -4.6922  -1.3984   3.5832   5.3764   8.3090

          k = 0.2500 0.5292 0.0000 (  2781 PWs)   bands (ev):

   -12.5280 -10.2825  -6.9300  -3.5080  -2.0109   2.8281   6.3134   7.6402

          k = 0.3333 0.5774 0.0000 (  2778 PWs)   bands (ev):

   -11.1863 -11.1862  -7.7755  -2.5896  -2.5896   2.3545   7.1559   7.1560

     the Fermi energy is    -1.9942 ev

!    total energy              =     -23.39432283 Ry
     estimated scf accuracy    <          4.5E-10 Ry
     smearing contrib. (-TS)   =       0.00001289 Ry
     internal energy E=F+TS    =     -23.39433572 Ry

     The total energy is F=E-TS. E is the sum of the following terms:
     one-electron contribution =     -73.92645271 Ry
     hartree contribution      =      38.82874558 Ry
     xc contribution           =      -7.65683105 Ry
     ewald contribution        =      19.36020246 Ry

     convergence has been achieved in  13 iterations

     negative rho (up, down):  1.053E-08 0.000E+00

     Forces acting on atoms (cartesian axes, Ry/au):

     atom    1 type  1   force =     0.00000000    0.00000000   -0.28999964
     atom    2 type  1   force =     0.00000000    0.00000000    0.28999964

     Total force =     0.290000     Total SCF correction =     0.000020

     BFGS Geometry Optimization
     Energy error            =      0.0E+00 Ry
     Gradient error          =      2.9E-01 Ry/Bohr

     number of scf cycles    =   1
     number of bfgs steps    =   0

     energy             new  =     -23.3943228307 Ry

     new trust radius        =       0.2899996378 bohr
     new conv_thr            =       0.0000000010 Ry


ATOMIC_POSITIONS (crystal)
C             0.3333333330        0.6666666660        0.5000000000    0   0   0
C             0.6666666660        0.3333333330        0.4153461200



     Writing config-only to output data dir ../tmp/gr.save/
     NEW-OLD atomic charge density approx. for the potential

     Check: negative core charge=   -0.000004

     negative rho (up, down):  1.169E-05 0.000E+00

     total cpu time spent up to now is       13.1 secs

     Self-consistent Calculation

     iteration #  1     ecut=    60.00 Ry     beta= 0.70
     Davidson diagonalization with overlap
     c_bands:  5 eigenvalues not converged
     c_bands:  4 eigenvalues not converged
     c_bands:  4 eigenvalues not converged
     c_bands:  3 eigenvalues not converged
     c_bands:  1 eigenvalues not converged
     c_bands:  4 eigenvalues not converged
     c_bands:  5 eigenvalues not converged
     c_bands:  5 eigenvalues not converged
     c_bands:  3 eigenvalues not converged
     c_bands:  4 eigenvalues not converged
     c_bands:  4 eigenvalues not converged
     c_bands:  2 eigenvalues not converged
     ethr =  1.00E-06,  avg # of iterations = 24.5

     negative rho (up, down):  2.707E-06 0.000E+00

     total cpu time spent up to now is       17.0 secs

     total energy              =     -23.48514249 Ry
     estimated scf accuracy    <       0.02353153 Ry

     iteration #  2     ecut=    60.00 Ry     beta= 0.70
     Davidson diagonalization with overlap
     ethr =  2.94E-04,  avg # of iterations =  2.7

     negative rho (up, down):  1.271E-07 0.000E+00

     total cpu time spent up to now is       17.5 secs

     total energy              =     -23.48171354 Ry
     estimated scf accuracy    <       0.03302959 Ry

     iteration #  3     ecut=    60.00 Ry     beta= 0.70
     Davidson diagonalization with overlap
     ethr =  2.94E-04,  avg # of iterations =  1.9

     total cpu time spent up to now is       18.0 secs

     total energy              =     -23.48720184 Ry
     estimated scf accuracy    <       0.05888131 Ry

     iteration #  4     ecut=    60.00 Ry     beta= 0.70
     Davidson diagonalization with overlap
     ethr =  2.94E-04,  avg # of iterations =  1.1

     total cpu time spent up to now is       18.5 secs

     total energy              =     -23.49333388 Ry
     estimated scf accuracy    <       0.00016745 Ry

     iteration #  5     ecut=    60.00 Ry     beta= 0.70
     Davidson diagonalization with overlap
     c_bands:  2 eigenvalues not converged
     c_bands:  2 eigenvalues not converged
     c_bands:  1 eigenvalues not converged
     ethr =  2.09E-06,  avg # of iterations = 13.6

     total cpu time spent up to now is       20.1 secs

     total energy              =     -23.49379100 Ry
     estimated scf accuracy    <       0.00003273 Ry

     iteration #  6     ecut=    60.00 Ry     beta= 0.70
     Davidson diagonalization with overlap
     c_bands:  1 eigenvalues not converged
     ethr =  4.09E-07,  avg # of iterations =  5.2

     negative rho (up, down):  2.461E-08 0.000E+00

     total cpu time spent up to now is       20.7 secs

     total energy              =     -23.49379809 Ry
     estimated scf accuracy    <       0.00001023 Ry

     iteration #  7     ecut=    60.00 Ry     beta= 0.70
     Davidson diagonalization with overlap
     ethr =  1.28E-07,  avg # of iterations =  3.6

     negative rho (up, down):  1.830E-08 0.000E+00

     total cpu time spent up to now is       21.3 secs

     total energy              =     -23.49380187 Ry
     estimated scf accuracy    <       0.00000332 Ry

     iteration #  8     ecut=    60.00 Ry     beta= 0.70
     Davidson diagonalization with overlap
     ethr =  4.15E-08,  avg # of iterations =  3.1

     negative rho (up, down):  1.232E-08 0.000E+00

     total cpu time spent up to now is       21.8 secs

     total energy              =     -23.49380270 Ry
     estimated scf accuracy    <       0.00000093 Ry

     iteration #  9     ecut=    60.00 Ry     beta= 0.70
     Davidson diagonalization with overlap
     ethr =  1.16E-08,  avg # of iterations =  4.1

     negative rho (up, down):  1.517E-08 0.000E+00

     total cpu time spent up to now is       22.5 secs

     total energy              =     -23.49380312 Ry
     estimated scf accuracy    <       0.00000046 Ry

     iteration # 10     ecut=    60.00 Ry     beta= 0.70
     Davidson diagonalization with overlap
     ethr =  5.80E-09,  avg # of iterations =  2.3

     negative rho (up, down):  1.596E-08 0.000E+00

     total cpu time spent up to now is       23.0 secs

     total energy              =     -23.49380326 Ry
     estimated scf accuracy    <          5.3E-09 Ry

     iteration # 11     ecut=    60.00 Ry     beta= 0.70
     Davidson diagonalization with overlap
     ethr =  6.60E-11,  avg # of iterations =  9.9

     negative rho (up, down):  1.516E-08 0.000E+00

     total cpu time spent up to now is       24.2 secs

     total energy              =     -23.49380333 Ry
     estimated scf accuracy    <       0.00000005 Ry

     iteration # 12     ecut=    60.00 Ry     beta= 0.70
     Davidson diagonalization with overlap
     ethr =  6.60E-11,  avg # of iterations =  1.9

     negative rho (up, down):  1.404E-08 0.000E+00

     total cpu time spent up to now is       24.7 secs

     total energy              =     -23.49380332 Ry
     estimated scf accuracy    <       0.00000002 Ry

     iteration # 13     ecut=    60.00 Ry     beta= 0.70
     Davidson diagonalization with overlap
     ethr =  6.60E-11,  avg # of iterations =  4.9

     negative rho (up, down):  1.464E-08 0.000E+00

     total cpu time spent up to now is       25.4 secs

     total energy              =     -23.49380333 Ry
     estimated scf accuracy    <       0.00000002 Ry

     iteration # 14     ecut=    60.00 Ry     beta= 0.70
     Davidson diagonalization with overlap
     ethr =  6.60E-11,  avg # of iterations =  1.2

     negative rho (up, down):  1.461E-08 0.000E+00

     total cpu time spent up to now is       25.9 secs

     total energy              =     -23.49380333 Ry
     estimated scf accuracy    <          4.1E-09 Ry

     iteration # 15     ecut=    60.00 Ry     beta= 0.70
     Davidson diagonalization with overlap
     ethr =  5.07E-11,  avg # of iterations =  1.0

     negative rho (up, down):  1.464E-08 0.000E+00

     total cpu time spent up to now is       26.4 secs

     total energy              =     -23.49380333 Ry
     estimated scf accuracy    <          4.8E-09 Ry

     iteration # 16     ecut=    60.00 Ry     beta= 0.70
     Davidson diagonalization with overlap
     ethr =  5.07E-11,  avg # of iterations =  1.0

     negative rho (up, down):  1.501E-08 0.000E+00

     total cpu time spent up to now is       26.8 secs

     total energy              =     -23.49380333 Ry
     estimated scf accuracy    <          3.2E-09 Ry

     iteration # 17     ecut=    60.00 Ry     beta= 0.70
     Davidson diagonalization with overlap
     ethr =  3.98E-11,  avg # of iterations =  3.6

     negative rho (up, down):  1.493E-08 0.000E+00

     total cpu time spent up to now is       27.4 secs

     End of self-consistent calculation

          k = 0.0000 0.0000 0.0000 (  2759 PWs)   bands (ev):

   -18.7301  -8.3301  -1.5243   0.1600   0.1600   3.7013   4.4248   6.5374

          k = 0.0000 0.0962 0.0000 (  2774 PWs)   bands (ev):

   -18.5513  -8.1536  -1.3875  -0.6874  -0.1861   3.9084   4.6461   6.4359

          k = 0.0000 0.1925 0.0000 (  2786 PWs)   bands (ev):

   -18.0168  -7.6299  -2.7002  -1.0130  -0.9731   4.5001   5.3060   6.0749

          k = 0.0000 0.2887 0.0000 (  2772 PWs)   bands (ev):

   -17.1329  -6.7791  -5.1535  -1.8264  -0.5620   5.0437   5.9972   6.4125

          k = 0.0000 0.3849 0.0000 (  2782 PWs)   bands (ev):

   -15.9153  -7.6578  -5.6457  -2.5299  -0.4189   4.8985   7.2282   8.3339

          k = 0.0000 0.4811 0.0000 (  2776 PWs)   bands (ev):

   -14.4168  -9.9804  -4.3536  -2.9817  -0.9910   5.2753   7.3703   8.4365

          k = 0.0000-0.5774 0.0000 (  2804 PWs)   bands (ev):

   -13.2087 -11.4711  -3.4969  -3.1366  -1.6662   6.0836   6.3847   8.4558

          k = 0.0833 0.1443 0.0000 (  2777 PWs)   bands (ev):

   -18.1947  -7.8034  -1.9654  -1.1382  -0.9123   4.3120   5.0869   6.4043

          k = 0.0833 0.2406 0.0000 (  2778 PWs)   bands (ev):

   -17.4853  -7.1153  -4.0019  -1.9774  -0.7067   5.0186   5.9538   6.2464

          k = 0.0833 0.3368 0.0000 (  2785 PWs)   bands (ev):

   -16.4333  -6.3928  -6.1182  -2.8810  -0.3735   5.2774   6.7390   7.2622

          k = 0.0833 0.4330 0.0000 (  2781 PWs)   bands (ev):

   -15.0657  -8.7779  -4.8906  -3.5147  -0.5775   5.2915   7.6668   8.2370

          k = 0.0833 0.5292 0.0000 (  2789 PWs)   bands (ev):

   -13.5221 -10.8623  -3.8777  -3.6250  -1.3788   5.7476   7.2362   8.3860

          k = 0.1667 0.2887 0.0000 (  2782 PWs)   bands (ev):

   -16.6071  -6.2808  -5.5708  -3.5234  -0.3733   5.6495   6.8726   6.9489

          k = 0.1667 0.3849 0.0000 (  2786 PWs)   bands (ev):

   -15.3994  -7.5454  -5.1754  -4.6932  -0.3281   5.8495   6.7299   8.2212

          k = 0.1667 0.4811 0.0000 (  2774 PWs)   bands (ev):

   -13.9157  -9.6572  -5.3336  -3.9096  -0.8644   5.4377   7.3726   9.4563

          k = 0.1667 0.5774 0.0000 (  2774 PWs)   bands (ev):

   -12.7102 -11.0961  -5.5354  -3.0589  -1.5006   5.2530   8.4313   8.4684

          k = 0.2500 0.4330 0.0000 (  2770 PWs)   bands (ev):

   -14.0627  -8.8032  -6.3268  -4.0164  -0.6184   5.3113   7.1277   9.8984

          k = 0.2500 0.5292 0.0000 (  2781 PWs)   bands (ev):

   -12.5493 -10.3533  -7.1258  -2.8515  -1.2827   4.5693   8.4012   9.8498

          k = 0.3333 0.5774 0.0000 (  2778 PWs)   bands (ev):

   -11.2265 -11.2265  -7.9758  -1.9224  -1.9223   4.1122   9.4853   9.4854

     the Fermi energy is    -1.3285 ev

!    total energy              =     -23.49380333 Ry
     estimated scf accuracy    <          5.3E-10 Ry
     smearing contrib. (-TS)   =      -0.00098564 Ry
     internal energy E=F+TS    =     -23.49281769 Ry

     The total energy is F=E-TS. E is the sum of the following terms:
     one-electron contribution =     -78.17913351 Ry
     hartree contribution      =      41.09662209 Ry
     xc contribution           =      -7.80787188 Ry
     ewald contribution        =      21.39756561 Ry

     convergence has been achieved in  17 iterations

     negative rho (up, down):  1.493E-08 0.000E+00

     Forces acting on atoms (cartesian axes, Ry/au):

     atom    1 type  1   force =     0.00000000    0.00000000   -0.37909535
     atom    2 type  1   force =     0.00000000    0.00000000    0.37909535

     Total force =     0.379095     Total SCF correction =     0.000034
     Energy error            =      9.9E-02 Ry
     Gradient error          =      3.8E-01 Ry/Bohr

     number of scf cycles    =   2
     number of bfgs steps    =   1

     energy             old  =     -23.3943228307 Ry
     energy             new  =     -23.4938033286 Ry

     CASE: energy            _new < energy            _old


     WARNING: bfgs curvature condition failed, Theta= 0.612
     uphill step: resetting bfgs history

     new trust radius        =       0.3189996016 bohr
     new conv_thr            =       0.0000000010 Ry


ATOMIC_POSITIONS (crystal)
C             0.3333333330        0.6666666660        0.5000000000    0   0   0
C             0.6666666660        0.3333333330        0.4322268519



     Writing config-only to output data dir ../tmp/gr.save/
     NEW-OLD atomic charge density approx. for the potential

     Check: negative core charge=   -0.000004

     negative rho (up, down):  2.686E-05 0.000E+00

     total cpu time spent up to now is       27.6 secs

     Self-consistent Calculation

     iteration #  1     ecut=    60.00 Ry     beta= 0.70
     Davidson diagonalization with overlap
     c_bands:  4 eigenvalues not converged
     c_bands:  4 eigenvalues not converged
     c_bands:  1 eigenvalues not converged
     c_bands:  1 eigenvalues not converged
     c_bands:  4 eigenvalues not converged
     c_bands:  1 eigenvalues not converged
     c_bands:  1 eigenvalues not converged
     c_bands:  1 eigenvalues not converged
     c_bands:  3 eigenvalues not converged
     ethr =  1.00E-06,  avg # of iterations = 31.8

     negative rho (up, down):  6.733E-06 0.000E+00

     total cpu time spent up to now is       32.3 secs

     total energy              =     -23.61101491 Ry
     estimated scf accuracy    <       0.02991357 Ry

     iteration #  2     ecut=    60.00 Ry     beta= 0.70
     Davidson diagonalization with overlap
     ethr =  3.74E-04,  avg # of iterations =  2.0

     negative rho (up, down):  4.092E-06 0.000E+00

     total cpu time spent up to now is       32.9 secs

     total energy              =     -23.59803233 Ry
     estimated scf accuracy    <       0.13709514 Ry

     iteration #  3     ecut=    60.00 Ry     beta= 0.70
     Davidson diagonalization with overlap
     ethr =  3.74E-04,  avg # of iterations =  1.6

     negative rho (up, down):  5.735E-06 0.000E+00

     total cpu time spent up to now is       33.3 secs

     total energy              =     -23.62057431 Ry
     estimated scf accuracy    <       0.01209033 Ry

     iteration #  4     ecut=    60.00 Ry     beta= 0.70
     Davidson diagonalization with overlap
     ethr =  1.51E-04,  avg # of iterations =  1.3

     negative rho (up, down):  1.232E-05 0.000E+00

     total cpu time spent up to now is       33.8 secs

     total energy              =     -23.62214160 Ry
     estimated scf accuracy    <       0.00005156 Ry

     iteration #  5     ecut=    60.00 Ry     beta= 0.70
     Davidson diagonalization with overlap
     c_bands:  2 eigenvalues not converged
     c_bands:  1 eigenvalues not converged
     c_bands:  2 eigenvalues not converged
     c_bands:  2 eigenvalues not converged
     c_bands:  1 eigenvalues not converged
     ethr =  6.44E-07,  avg # of iterations = 15.5

     negative rho (up, down):  1.235E-05 0.000E+00

     total cpu time spent up to now is       36.5 secs

     total energy              =     -23.62264777 Ry
     estimated scf accuracy    <       0.00002357 Ry

     iteration #  6     ecut=    60.00 Ry     beta= 0.70
     Davidson diagonalization with overlap
     ethr =  2.95E-07,  avg # of iterations =  3.5

     negative rho (up, down):  1.539E-05 0.000E+00

     total cpu time spent up to now is       37.1 secs

     total energy              =     -23.62264595 Ry
     estimated scf accuracy    <       0.00002095 Ry

     iteration #  7     ecut=    60.00 Ry     beta= 0.70
     Davidson diagonalization with overlap
     ethr =  2.62E-07,  avg # of iterations =  3.2

     negative rho (up, down):  1.473E-05 0.000E+00

     total cpu time spent up to now is       38.0 secs

     total energy              =     -23.62264638 Ry
     estimated scf accuracy    <       0.00003269 Ry

     iteration #  8     ecut=    60.00 Ry     beta= 0.70
     Davidson diagonalization with overlap
     ethr =  2.62E-07,  avg # of iterations =  1.2

     negative rho (up, down):  1.433E-05 0.000E+00

     total cpu time spent up to now is       38.4 secs

     total energy              =     -23.62264516 Ry
     estimated scf accuracy    <       0.00000593 Ry

     iteration #  9     ecut=    60.00 Ry     beta= 0.70
     Davidson diagonalization with overlap
     ethr =  7.41E-08,  avg # of iterations =  2.1

     negative rho (up, down):  1.432E-05 0.000E+00

     total cpu time spent up to now is       39.0 secs

     total energy              =     -23.62264630 Ry
     estimated scf accuracy    <       0.00000006 Ry

     iteration # 10     ecut=    60.00 Ry     beta= 0.70
     Davidson diagonalization with overlap
     ethr =  7.46E-10,  avg # of iterations =  8.5

     negative rho (up, down):  1.434E-05 0.000E+00

     total cpu time spent up to now is       40.2 secs

     total energy              =     -23.62264725 Ry
     estimated scf accuracy    <       0.00000008 Ry

     iteration # 11     ecut=    60.00 Ry     beta= 0.70
     Davidson diagonalization with overlap
     ethr =  7.46E-10,  avg # of iterations =  1.1

     negative rho (up, down):  1.435E-05 0.000E+00

     total cpu time spent up to now is       40.7 secs

     total energy              =     -23.62264724 Ry
     estimated scf accuracy    <       0.00000003 Ry

     iteration # 12     ecut=    60.00 Ry     beta= 0.70
     Davidson diagonalization with overlap
     ethr =  3.90E-10,  avg # of iterations =  2.1

     negative rho (up, down):  1.436E-05 0.000E+00

     total cpu time spent up to now is       41.2 secs

     total energy              =     -23.62264724 Ry
     estimated scf accuracy    <       0.00000001 Ry

     iteration # 13     ecut=    60.00 Ry     beta= 0.70
     Davidson diagonalization with overlap
     ethr =  1.63E-10,  avg # of iterations =  2.1

     negative rho (up, down):  1.437E-05 0.000E+00

     total cpu time spent up to now is       41.7 secs

     End of self-consistent calculation

          k = 0.0000 0.0000 0.0000 (  2759 PWs)   bands (ev):

   -18.7846  -7.8452  -0.4042  -0.4042  -0.1819   3.7456   4.3588   7.4279

          k = 0.0000 0.0962 0.0000 (  2774 PWs)   bands (ev):

   -18.6096  -7.6662  -1.2103  -0.7541  -0.0464   3.9447   4.5813   7.3344

          k = 0.0000 0.1925 0.0000 (  2786 PWs)   bands (ev):

   -18.0864  -7.1365  -3.1447  -1.5552   0.3111   4.5212   5.2427   7.0418

          k = 0.0000 0.2887 0.0000 (  2772 PWs)   bands (ev):

   -17.2208  -6.3125  -5.4872  -2.4274   0.6953   5.3445   6.3271   6.8238

          k = 0.0000 0.3849 0.0000 (  2782 PWs)   bands (ev):

   -16.0272  -7.9978  -5.0945  -3.1472   0.6722   5.9830   7.4125   7.8016

          k = 0.0000 0.4811 0.0000 (  2776 PWs)   bands (ev):

   -14.5525 -10.2677  -3.8007  -3.6093  -0.0634   6.6657   8.1685   9.2816

          k = 0.0000-0.5774 0.0000 (  2804 PWs)   bands (ev):

   -13.3353 -11.7592  -3.7678  -2.9744  -0.7601   7.2108   8.0076  10.7175

          k = 0.0833 0.1443 0.0000 (  2777 PWs)   bands (ev):

   -18.2605  -7.3116  -2.4400  -1.4793   0.2013   4.3344   5.0233   7.3426

          k = 0.0833 0.2406 0.0000 (  2778 PWs)   bands (ev):

   -17.5659  -6.6210  -4.4030  -2.5303   0.5845   5.0631   5.8970   7.2516

          k = 0.0833 0.3368 0.0000 (  2785 PWs)   bands (ev):

   -16.5354  -6.7802  -5.5569  -3.4398   0.7975   5.9116   7.1454   7.4243

          k = 0.0833 0.4330 0.0000 (  2781 PWs)   bands (ev):

   -15.1933  -9.0876  -4.3350  -4.0813   0.4018   6.6232   8.3562   8.6507

          k = 0.0833 0.5292 0.0000 (  2789 PWs)   bands (ev):

   -13.6642 -11.1401  -4.4114  -3.1200  -0.4966   7.4661   8.3159   9.8831

          k = 0.1667 0.2887 0.0000 (  2782 PWs)   bands (ev):

   -16.7059  -6.0722  -5.6273  -4.0335   0.8261   5.8910   6.9535   7.8673

          k = 0.1667 0.3849 0.0000 (  2786 PWs)   bands (ev):

   -15.5222  -7.8790  -5.1867  -4.6174   0.6946   6.8566   7.9534   8.7455

          k = 0.1667 0.4811 0.0000 (  2774 PWs)   bands (ev):

   -14.0637  -9.9409  -5.8134  -3.3532  -0.0075   7.2459   8.6599  10.1692

          k = 0.1667 0.5774 0.0000 (  2774 PWs)   bands (ev):

   -12.8553 -11.3752  -6.0130  -2.5263  -0.6754   7.1523   9.7064  10.4031

          k = 0.2500 0.4330 0.0000 (  2770 PWs)   bands (ev):

   -14.2111  -9.0856  -6.7845  -3.4509   0.2307   7.1523   8.2824  10.4390

          k = 0.2500 0.5292 0.0000 (  2781 PWs)   bands (ev):

   -12.7197 -10.6015  -7.5693  -2.2774  -0.5503   6.4454  10.0628  11.7699

          k = 0.3333 0.5774 0.0000 (  2778 PWs)   bands (ev):

   -11.4252 -11.4251  -8.4245  -1.2960  -1.2960   5.9986  11.7063  11.7063

     the Fermi energy is    -0.7757 ev

!    total energy              =     -23.62264725 Ry
     estimated scf accuracy    <          9.6E-10 Ry
     smearing contrib. (-TS)   =      -0.00051904 Ry
     internal energy E=F+TS    =     -23.62212821 Ry

     The total energy is F=E-TS. E is the sum of the following terms:
     one-electron contribution =     -82.44228197 Ry
     hartree contribution      =      43.31161063 Ry
     xc contribution           =      -7.97375803 Ry
     ewald contribution        =      23.48230116 Ry

     convergence has been achieved in  13 iterations

     negative rho (up, down):  1.437E-05 0.000E+00

     Forces acting on atoms (cartesian axes, Ry/au):

     atom    1 type  1   force =     0.00000000    0.00000000   -0.41736337
     atom    2 type  1   force =     0.00000000    0.00000000    0.41736337

     Total force =     0.417363     Total SCF correction =     0.000027
     Energy error            =      1.3E-01 Ry
     Gradient error          =      4.2E-01 Ry/Bohr

     number of scf cycles    =   3
     number of bfgs steps    =   2

     energy             old  =     -23.4938033286 Ry
     energy             new  =     -23.6226472467 Ry

     CASE: energy            _new < energy            _old


     WARNING: bfgs curvature condition failed, Theta= 0.714
     uphill step: resetting bfgs history

     new trust radius        =       0.4173633727 bohr
     new conv_thr            =       0.0000000010 Ry


ATOMIC_POSITIONS (crystal)
C             0.3333333330        0.6666666660        0.5000000000    0   0   0
C             0.6666666660        0.3333333330        0.4543127704



     Writing config-only to output data dir ../tmp/gr.save/
     NEW-OLD atomic charge density approx. for the potential

     Check: negative core charge=   -0.000004

     negative rho (up, down):  3.406E-04 0.000E+00

     total cpu time spent up to now is       42.1 secs

     Self-consistent Calculation

     iteration #  1     ecut=    60.00 Ry     beta= 0.70
     Davidson diagonalization with overlap
     c_bands:  3 eigenvalues not converged
     c_bands:  1 eigenvalues not converged
     c_bands:  1 eigenvalues not converged
     c_bands:  5 eigenvalues not converged
     c_bands:  5 eigenvalues not converged
     c_bands:  3 eigenvalues not converged
     c_bands:  1 eigenvalues not converged
     c_bands:  3 eigenvalues not converged
     c_bands:  1 eigenvalues not converged
     ethr =  1.00E-06,  avg # of iterations = 33.9

     negative rho (up, down):  3.436E-05 0.000E+00

     total cpu time spent up to now is       47.2 secs

     total energy              =     -23.76305989 Ry
     estimated scf accuracy    <       0.03269582 Ry

     iteration #  2     ecut=    60.00 Ry     beta= 0.70
     Davidson diagonalization with overlap
     ethr =  4.09E-04,  avg # of iterations =  2.3

     negative rho (up, down):  2.131E-05 0.000E+00

     total cpu time spent up to now is       47.7 secs

     WARNING: integrated charge=     8.00001201, expected=     8.00000000

     total energy              =     -23.75744513 Ry
     estimated scf accuracy    <       0.13666356 Ry

     iteration #  3     ecut=    60.00 Ry     beta= 0.70
     Davidson diagonalization with overlap
     ethr =  4.09E-04,  avg # of iterations =  1.2

     negative rho (up, down):  2.106E-05 0.000E+00

     total cpu time spent up to now is       48.2 secs

     WARNING: integrated charge=     8.00000433, expected=     8.00000000

     total energy              =     -23.77740819 Ry
     estimated scf accuracy    <       0.00046522 Ry

     iteration #  4     ecut=    60.00 Ry     beta= 0.70
     Davidson diagonalization with overlap
     c_bands:  1 eigenvalues not converged
     c_bands:  1 eigenvalues not converged
     ethr =  5.82E-06,  avg # of iterations = 10.8

     negative rho (up, down):  2.691E-05 0.000E+00

     total cpu time spent up to now is       49.4 secs

     WARNING: integrated charge=     8.00000136, expected=     8.00000000

     total energy              =     -23.77826597 Ry
     estimated scf accuracy    <       0.00006510 Ry

     iteration #  5     ecut=    60.00 Ry     beta= 0.70
     Davidson diagonalization with overlap
     c_bands:  1 eigenvalues not converged
     ethr =  8.14E-07,  avg # of iterations =  7.7

     negative rho (up, down):  2.921E-05 0.000E+00

     total cpu time spent up to now is       50.2 secs

     total energy              =     -23.77831645 Ry
     estimated scf accuracy    <       0.00000309 Ry

     iteration #  6     ecut=    60.00 Ry     beta= 0.70
     Davidson diagonalization with overlap
     ethr =  3.86E-08,  avg # of iterations =  5.9

     negative rho (up, down):  2.940E-05 0.000E+00

     total cpu time spent up to now is       51.0 secs

     total energy              =     -23.77832401 Ry
     estimated scf accuracy    <       0.00000095 Ry

     iteration #  7     ecut=    60.00 Ry     beta= 0.70
     Davidson diagonalization with overlap
     ethr =  1.18E-08,  avg # of iterations =  2.3

     negative rho (up, down):  2.944E-05 0.000E+00

     total cpu time spent up to now is       51.5 secs

     total energy              =     -23.77832419 Ry
     estimated scf accuracy    <       0.00000007 Ry

     iteration #  8     ecut=    60.00 Ry     beta= 0.70
     Davidson diagonalization with overlap
     ethr =  8.50E-10,  avg # of iterations =  5.7

     negative rho (up, down):  2.949E-05 0.000E+00

     total cpu time spent up to now is       52.2 secs

     total energy              =     -23.77832436 Ry
     estimated scf accuracy    <       0.00000004 Ry

     iteration #  9     ecut=    60.00 Ry     beta= 0.70
     Davidson diagonalization with overlap
     ethr =  5.41E-10,  avg # of iterations =  1.4

     negative rho (up, down):  2.948E-05 0.000E+00

     total cpu time spent up to now is       52.7 secs

     total energy              =     -23.77832436 Ry
     estimated scf accuracy    <          3.6E-09 Ry

     iteration # 10     ecut=    60.00 Ry     beta= 0.70
     Davidson diagonalization with overlap
     ethr =  4.44E-11,  avg # of iterations =  5.2

     negative rho (up, down):  2.947E-05 0.000E+00

     total cpu time spent up to now is       53.4 secs

     End of self-consistent calculation

          k = 0.0000 0.0000 0.0000 (  2759 PWs)   bands (ev):

   -19.4329  -7.8291  -1.8821  -1.8821   1.3295   4.0823   4.2751   7.7428

          k = 0.0000 0.0962 0.0000 (  2774 PWs)   bands (ev):

   -19.2633  -7.6466  -2.6152  -2.2294   1.4863   4.2599   4.4989   7.6881

          k = 0.0000 0.1925 0.0000 (  2786 PWs)   bands (ev):

   -18.7559  -7.1143  -4.4026  -3.0329   1.8961   4.7596   5.1629   7.4748

          k = 0.0000 0.2887 0.0000 (  2772 PWs)   bands (ev):

   -17.9165  -6.8647  -6.0168  -3.9153   2.2754   5.4687   6.2537   7.3519

          k = 0.0000 0.3849 0.0000 (  2782 PWs)   bands (ev):

   -16.7581  -9.0717  -4.9580  -4.6464   1.9831   6.3966   7.5089   7.7750

          k = 0.0000 0.4811 0.0000 (  2776 PWs)   bands (ev):

   -15.3197 -11.2602  -5.1165  -3.6313   0.8918   7.1910   8.1972   9.5508

          k = 0.0000-0.5774 0.0000 (  2804 PWs)   bands (ev):

   -14.0862 -12.7532  -5.2777  -2.8158   0.0866   7.1983   9.6098  10.5704

          k = 0.0833 0.1443 0.0000 (  2777 PWs)   bands (ev):

   -18.9248  -7.2879  -3.7509  -2.9349   1.7718   4.6005   4.9430   7.7483

          k = 0.0833 0.2406 0.0000 (  2778 PWs)   bands (ev):

   -18.2513  -6.6448  -5.5286  -3.9654   2.1875   5.2166   5.8208   7.7454

          k = 0.0833 0.3368 0.0000 (  2785 PWs)   bands (ev):

   -17.2518  -7.9035  -5.4438  -4.8626   2.2578   6.0460   7.1107   7.9683

          k = 0.0833 0.4330 0.0000 (  2781 PWs)   bands (ev):

   -15.9477 -10.1172  -5.5166  -4.1686   1.4878   7.2607   8.2724   8.7446

          k = 0.0833 0.5292 0.0000 (  2789 PWs)   bands (ev):

   -14.4416 -12.1172  -5.8454  -2.9393   0.3404   7.9917   9.1520  10.3036

          k = 0.1667 0.2887 0.0000 (  2782 PWs)   bands (ev):

   -17.4175  -7.1654  -5.5691  -5.4043   2.3338   5.9533   6.8943   8.3960

          k = 0.1667 0.3849 0.0000 (  2786 PWs)   bands (ev):

   -16.2692  -8.9459  -6.5208  -4.4536   1.8793   7.0920   8.2865   9.3610

          k = 0.1667 0.4811 0.0000 (  2774 PWs)   bands (ev):

   -14.8488 -10.9313  -7.1294  -3.1468   0.8322   8.5982   9.4417  10.1326

          k = 0.1667 0.5774 0.0000 (  2774 PWs)   bands (ev):

   -13.6338 -12.3595  -7.3234  -2.3138   0.0470   9.1020   9.9835  11.2864

          k = 0.2500 0.4330 0.0000 (  2770 PWs)   bands (ev):

   -14.9965 -10.0742  -8.0647  -3.2367   1.0784   8.6656   8.8707  10.8433

          k = 0.2500 0.5292 0.0000 (  2781 PWs)   bands (ev):

   -13.5384 -11.5389  -8.8217  -2.0020   0.0524   8.4178  10.7335  12.5049

          k = 0.3333 0.5774 0.0000 (  2778 PWs)   bands (ev):

   -12.2845 -12.2844  -9.6869  -0.8930  -0.8929   8.0004  12.8945  12.8947

     the Fermi energy is    -0.8550 ev

!    total energy              =     -23.77832437 Ry
     estimated scf accuracy    <          5.0E-10 Ry
     smearing contrib. (-TS)   =      -0.00018225 Ry
     internal energy E=F+TS    =     -23.77814212 Ry

     The total energy is F=E-TS. E is the sum of the following terms:
     one-electron contribution =     -86.78917930 Ry
     hartree contribution      =      45.36793263 Ry
     xc contribution           =      -8.14164626 Ry
     ewald contribution        =      25.78475081 Ry

     convergence has been achieved in  10 iterations

     negative rho (up, down):  2.947E-05 0.000E+00

     Forces acting on atoms (cartesian axes, Ry/au):

     atom    1 type  1   force =     0.00000000   -0.00000000   -0.30686882
     atom    2 type  1   force =     0.00000000    0.00000000    0.30686882

     Total force =     0.306869     Total SCF correction =     0.000038
     Energy error            =      1.6E-01 Ry
     Gradient error          =      3.1E-01 Ry/Bohr

     number of scf cycles    =   4
     number of bfgs steps    =   3

     energy             old  =     -23.6226472467 Ry
     energy             new  =     -23.7783243668 Ry

     CASE: energy            _new < energy            _old

     new trust radius        =       0.4590997099 bohr
     new conv_thr            =       0.0000000010 Ry


ATOMIC_POSITIONS (crystal)
C             0.3333333330        0.6666666660        0.5000000000    0   0   0
C             0.6666666660        0.3333333330        0.4786072808



     Writing config-only to output data dir ../tmp/gr.save/
     NEW-OLD atomic charge density approx. for the potential

     Check: negative core charge=   -0.000004

     negative rho (up, down):  3.307E-04 0.000E+00

     total cpu time spent up to now is       53.6 secs

     Self-consistent Calculation

     iteration #  1     ecut=    60.00 Ry     beta= 0.70
     Davidson diagonalization with overlap
     c_bands:  5 eigenvalues not converged
     c_bands:  4 eigenvalues not converged
     c_bands:  1 eigenvalues not converged
     c_bands:  2 eigenvalues not converged
     c_bands:  1 eigenvalues not converged
     c_bands:  3 eigenvalues not converged
     c_bands:  1 eigenvalues not converged
     ethr =  1.00E-06,  avg # of iterations = 34.2

     negative rho (up, down):  4.950E-05 0.000E+00

     total cpu time spent up to now is       58.6 secs

     total energy              =     -23.87225042 Ry
     estimated scf accuracy    <       0.02570154 Ry

     iteration #  2     ecut=    60.00 Ry     beta= 0.70
     Davidson diagonalization with overlap
     ethr =  3.21E-04,  avg # of iterations =  2.2

     negative rho (up, down):  3.747E-05 0.000E+00

     total cpu time spent up to now is       59.2 secs

     total energy              =     -23.87500622 Ry
     estimated scf accuracy    <       0.02374317 Ry

     iteration #  3     ecut=    60.00 Ry     beta= 0.70
     Davidson diagonalization with overlap
     ethr =  2.97E-04,  avg # of iterations =  1.1

     negative rho (up, down):  4.122E-05 0.000E+00

     total cpu time spent up to now is       59.6 secs

     total energy              =     -23.88045592 Ry
     estimated scf accuracy    <       0.00088386 Ry

     iteration #  4     ecut=    60.00 Ry     beta= 0.70
     Davidson diagonalization with overlap
     ethr =  1.10E-05,  avg # of iterations =  6.6

     negative rho (up, down):  4.502E-05 0.000E+00

     total cpu time spent up to now is       60.4 secs

     total energy              =     -23.88119765 Ry
     estimated scf accuracy    <       0.00008459 Ry

     iteration #  5     ecut=    60.00 Ry     beta= 0.70
     Davidson diagonalization with overlap
     ethr =  1.06E-06,  avg # of iterations =  8.2

     negative rho (up, down):  4.739E-05 0.000E+00

     total cpu time spent up to now is       61.3 secs

     total energy              =     -23.88129638 Ry
     estimated scf accuracy    <       0.00000743 Ry

     iteration #  6     ecut=    60.00 Ry     beta= 0.70
     Davidson diagonalization with overlap
     ethr =  9.29E-08,  avg # of iterations =  4.6

     negative rho (up, down):  4.754E-05 0.000E+00

     total cpu time spent up to now is       62.0 secs

     total energy              =     -23.88130708 Ry
     estimated scf accuracy    <       0.00000299 Ry

     iteration #  7     ecut=    60.00 Ry     beta= 0.70
     Davidson diagonalization with overlap
     ethr =  3.74E-08,  avg # of iterations =  2.2

     negative rho (up, down):  4.755E-05 0.000E+00

     total cpu time spent up to now is       62.6 secs

     total energy              =     -23.88130774 Ry
     estimated scf accuracy    <       0.00000006 Ry

     iteration #  8     ecut=    60.00 Ry     beta= 0.70
     Davidson diagonalization with overlap
     ethr =  7.13E-10,  avg # of iterations =  6.5

     negative rho (up, down):  4.764E-05 0.000E+00

     total cpu time spent up to now is       63.4 secs

     total energy              =     -23.88130817 Ry
     estimated scf accuracy    <       0.00000028 Ry

     iteration #  9     ecut=    60.00 Ry     beta= 0.70
     Davidson diagonalization with overlap
     ethr =  7.13E-10,  avg # of iterations =  5.0

     negative rho (up, down):  4.762E-05 0.000E+00

     total cpu time spent up to now is       64.1 secs

     total energy              =     -23.88130823 Ry
     estimated scf accuracy    <          5.7E-09 Ry

     iteration # 10     ecut=    60.00 Ry     beta= 0.70
     Davidson diagonalization with overlap
     ethr =  7.13E-11,  avg # of iterations =  4.2

     negative rho (up, down):  4.762E-05 0.000E+00

     total cpu time spent up to now is       64.7 secs

     End of self-consistent calculation

          k = 0.0000 0.0000 0.0000 (  2759 PWs)   bands (ev):

   -19.8867  -8.0118  -3.1397  -3.1397   2.3440   4.2152   4.8409   7.8476

          k = 0.0000 0.0962 0.0000 (  2774 PWs)   bands (ev):

   -19.7214  -7.8207  -3.8076  -3.4811   2.5553   4.4382   5.0294   7.8835

          k = 0.0000 0.1925 0.0000 (  2786 PWs)   bands (ev):

   -19.2270  -7.2633  -5.4679  -4.2782   3.1705   5.1022   5.5330   7.7440

          k = 0.0000 0.2887 0.0000 (  2772 PWs)   bands (ev):

   -18.4092  -7.6776  -6.2554  -5.1608   4.0139   5.8388   6.2185   7.5943

          k = 0.0000 0.3849 0.0000 (  2782 PWs)   bands (ev):

   -17.2801  -9.8871  -5.8954  -5.0358   3.6094   6.3727   7.3600   7.7894

          k = 0.0000 0.4811 0.0000 (  2776 PWs)   bands (ev):

   -15.8725 -12.0093  -6.3687  -3.6404   1.9177   7.1147   8.1800   9.6719

          k = 0.0000-0.5774 0.0000 (  2804 PWs)   bands (ev):

   -14.6133 -13.5152  -6.5311  -2.8055   0.9176   7.0206  10.3687  10.6173

          k = 0.0833 0.1443 0.0000 (  2777 PWs)   bands (ev):

   -19.3915  -7.4447  -4.8594  -4.1665   2.9698   4.8822   5.3808   8.0631

          k = 0.0833 0.2406 0.0000 (  2778 PWs)   bands (ev):

   -18.7354  -6.8876  -6.4061  -5.1735   3.7303   5.7544   5.8642   7.8962

          k = 0.0833 0.3368 0.0000 (  2785 PWs)   bands (ev):

   -17.7617  -8.7537  -6.0728  -5.5434   4.1160   5.9875   7.0764   8.2252

          k = 0.0833 0.4330 0.0000 (  2781 PWs)   bands (ev):

   -16.4898 -10.8977  -6.7062  -4.2012   2.7358   7.3532   7.9643   8.8043

          k = 0.0833 0.5292 0.0000 (  2789 PWs)   bands (ev):

   -15.0014 -12.8554  -7.0353  -2.9153   1.1842   7.7884   9.4518  10.7422

          k = 0.1667 0.2887 0.0000 (  2782 PWs)   bands (ev):

   -17.9233  -8.0131  -6.5564  -5.7144   4.2212   5.9730   6.8474   8.2751

          k = 0.1667 0.3849 0.0000 (  2786 PWs)   bands (ev):

   -16.8049  -9.7507  -7.6298  -4.4992   3.3101   6.9834   8.3136   9.5450

          k = 0.1667 0.4811 0.0000 (  2774 PWs)   bands (ev):

   -15.4168 -11.6795  -8.2149  -3.1068   1.7214   8.8396   9.7449   9.9728

          k = 0.1667 0.5774 0.0000 (  2774 PWs)   bands (ev):

   -14.1848 -13.1149  -8.4022  -2.2323   0.7438   9.6584  10.5592  11.2483

          k = 0.2500 0.4330 0.0000 (  2770 PWs)   bands (ev):

   -15.5648 -10.8076  -9.1298  -3.1918   1.9995   8.6532   9.6349  11.2143

          k = 0.2500 0.5292 0.0000 (  2781 PWs)   bands (ev):

   -14.1322 -12.2388  -9.8520  -1.8494   0.6331   9.9875  10.7904  12.0103

          k = 0.3333 0.5774 0.0000 (  2778 PWs)   bands (ev):

   -12.9058 -12.9058 -10.7417  -0.5636  -0.5634   9.6597  12.6409  12.6412

     the Fermi energy is    -0.5256 ev

!    total energy              =     -23.88130824 Ry
     estimated scf accuracy    <          4.0E-10 Ry
     smearing contrib. (-TS)   =      -0.00018232 Ry
     internal energy E=F+TS    =     -23.88112591 Ry

     The total energy is F=E-TS. E is the sum of the following terms:
     one-electron contribution =     -89.88119097 Ry
     hartree contribution      =      46.80520452 Ry
     xc contribution           =      -8.26715919 Ry
     ewald contribution        =      27.46201973 Ry

     convergence has been achieved in  10 iterations

     negative rho (up, down):  4.762E-05 0.000E+00

     Forces acting on atoms (cartesian axes, Ry/au):

     atom    1 type  1   force =     0.00000000    0.00000000   -0.14200693
     atom    2 type  1   force =     0.00000000    0.00000000    0.14200693

     Total force =     0.142007     Total SCF correction =     0.000029
     Energy error            =      1.0E-01 Ry
     Gradient error          =      1.4E-01 Ry/Bohr

     number of scf cycles    =   5
     number of bfgs steps    =   4

     energy             old  =     -23.7783243668 Ry
     energy             new  =     -23.8813082376 Ry

     CASE: energy            _new < energy            _old

     new trust radius        =       0.3954542557 bohr
     new conv_thr            =       0.0000000010 Ry


ATOMIC_POSITIONS (crystal)
C             0.3333333330        0.6666666660        0.5000000000    0   0   0
C             0.6666666660        0.3333333330        0.4995338189



     Writing config-only to output data dir ../tmp/gr.save/
     NEW-OLD atomic charge density approx. for the potential

     Check: negative core charge=   -0.000004

     negative rho (up, down):  1.914E-04 0.000E+00

     total cpu time spent up to now is       64.9 secs

     Self-consistent Calculation

     iteration #  1     ecut=    60.00 Ry     beta= 0.70
     Davidson diagonalization with overlap
     c_bands:  5 eigenvalues not converged
     c_bands:  1 eigenvalues not converged
     c_bands:  2 eigenvalues not converged
     c_bands:  1 eigenvalues not converged
     c_bands:  2 eigenvalues not converged
     c_bands:  1 eigenvalues not converged
     c_bands:  1 eigenvalues not converged
     c_bands:  1 eigenvalues not converged
     ethr =  1.00E-06,  avg # of iterations = 34.7

     negative rho (up, down):  4.854E-05 0.000E+00

     total cpu time spent up to now is       70.0 secs

     total energy              =     -23.90471998 Ry
     estimated scf accuracy    <       0.01714270 Ry

     iteration #  2     ecut=    60.00 Ry     beta= 0.70
     Davidson diagonalization with overlap
     ethr =  2.14E-04,  avg # of iterations =  2.2

     negative rho (up, down):  4.338E-05 0.000E+00

     total cpu time spent up to now is       70.6 secs

     total energy              =     -23.90851978 Ry
     estimated scf accuracy    <       0.00433899 Ry

     iteration #  3     ecut=    60.00 Ry     beta= 0.70
     Davidson diagonalization with overlap
     ethr =  5.42E-05,  avg # of iterations =  2.0

     negative rho (up, down):  4.994E-05 0.000E+00

     total cpu time spent up to now is       71.1 secs

     total energy              =     -23.90961017 Ry
     estimated scf accuracy    <       0.00007325 Ry

     iteration #  4     ecut=    60.00 Ry     beta= 0.70
     Davidson diagonalization with overlap
     c_bands:  2 eigenvalues not converged
     c_bands:  1 eigenvalues not converged
     c_bands:  1 eigenvalues not converged
     c_bands:  1 eigenvalues not converged
     ethr =  9.16E-07,  avg # of iterations = 12.9

     negative rho (up, down):  5.223E-05 0.000E+00

     total cpu time spent up to now is       72.7 secs

     total energy              =     -23.90988896 Ry
     estimated scf accuracy    <       0.00004354 Ry

     iteration #  5     ecut=    60.00 Ry     beta= 0.70
     Davidson diagonalization with overlap
     c_bands:  1 eigenvalues not converged
     ethr =  5.44E-07,  avg # of iterations =  2.9

     negative rho (up, down):  5.418E-05 0.000E+00

     total cpu time spent up to now is       73.2 secs

     total energy              =     -23.90989549 Ry
     estimated scf accuracy    <       0.00000146 Ry

     iteration #  6     ecut=    60.00 Ry     beta= 0.70
     Davidson diagonalization with overlap
     ethr =  1.82E-08,  avg # of iterations =  5.9

     negative rho (up, down):  5.435E-05 0.000E+00

     total cpu time spent up to now is       74.1 secs

     total energy              =     -23.90989966 Ry
     estimated scf accuracy    <       0.00000129 Ry

     iteration #  7     ecut=    60.00 Ry     beta= 0.70
     Davidson diagonalization with overlap
     ethr =  1.61E-08,  avg # of iterations =  1.3

     negative rho (up, down):  5.421E-05 0.000E+00

     total cpu time spent up to now is       74.6 secs

     total energy              =     -23.90989946 Ry
     estimated scf accuracy    <       0.00000042 Ry

     iteration #  8     ecut=    60.00 Ry     beta= 0.70
     Davidson diagonalization with overlap
     ethr =  5.31E-09,  avg # of iterations =  4.2

     negative rho (up, down):  5.434E-05 0.000E+00

     total cpu time spent up to now is       75.2 secs

     total energy              =     -23.90989962 Ry
     estimated scf accuracy    <       0.00000035 Ry

     iteration #  9     ecut=    60.00 Ry     beta= 0.70
     Davidson diagonalization with overlap
     ethr =  4.40E-09,  avg # of iterations =  1.6

     negative rho (up, down):  5.434E-05 0.000E+00

     total cpu time spent up to now is       75.7 secs

     total energy              =     -23.90989968 Ry
     estimated scf accuracy    <          5.6E-09 Ry

     iteration # 10     ecut=    60.00 Ry     beta= 0.70
     Davidson diagonalization with overlap
     ethr =  6.95E-11,  avg # of iterations =  5.5

     negative rho (up, down):  5.434E-05 0.000E+00

     total cpu time spent up to now is       76.6 secs

     total energy              =     -23.90989971 Ry
     estimated scf accuracy    <          3.7E-09 Ry

     iteration # 11     ecut=    60.00 Ry     beta= 0.70
     Davidson diagonalization with overlap
     ethr =  4.59E-11,  avg # of iterations =  1.1

     negative rho (up, down):  5.432E-05 0.000E+00

     total cpu time spent up to now is       77.1 secs

     total energy              =     -23.90989971 Ry
     estimated scf accuracy    <          1.4E-09 Ry

     iteration # 12     ecut=    60.00 Ry     beta= 0.70
     Davidson diagonalization with overlap
     ethr =  1.77E-11,  avg # of iterations =  4.6

     negative rho (up, down):  5.433E-05 0.000E+00

     total cpu time spent up to now is       77.8 secs

     total energy              =     -23.90989971 Ry
     estimated scf accuracy    <          4.8E-09 Ry

     iteration # 13     ecut=    60.00 Ry     beta= 0.70
     Davidson diagonalization with overlap
     ethr =  1.77E-11,  avg # of iterations =  1.9

     negative rho (up, down):  5.434E-05 0.000E+00

     total cpu time spent up to now is       78.3 secs

     End of self-consistent calculation

          k = 0.0000 0.0000 0.0000 (  2759 PWs)   bands (ev):

   -19.9923  -8.0921  -3.5170  -3.5170   2.5507   4.1975   5.1900   7.8800

          k = 0.0000 0.0962 0.0000 (  2774 PWs)   bands (ev):

   -19.8282  -7.8956  -4.1664  -3.8562   2.7754   4.4198   5.4105   7.9506

          k = 0.0000 0.1925 0.0000 (  2786 PWs)   bands (ev):

   -19.3377  -7.3112  -5.8022  -4.6502   3.4496   5.0839   6.0714   7.9148

          k = 0.0000 0.2887 0.0000 (  2772 PWs)   bands (ev):

   -18.5264  -7.9000  -6.3581  -5.5318   4.5715   6.1387   6.8845   7.1520

          k = 0.0000 0.3849 0.0000 (  2782 PWs)   bands (ev):

   -17.4064 -10.1040  -6.2667  -5.0868   4.4789   6.1341   7.2981   7.7599

          k = 0.0000 0.4811 0.0000 (  2776 PWs)   bands (ev):

   -16.0083 -12.2063  -6.7405  -3.6605   2.3371   7.0524   8.1581   9.7012

          k = 0.0000-0.5774 0.0000 (  2804 PWs)   bands (ev):

   -14.7378 -13.7196  -6.9033  -2.8133   1.2357   6.9754  10.5005  10.6340

          k = 0.0833 0.1443 0.0000 (  2777 PWs)   bands (ev):

   -19.5009  -7.5050  -5.1985  -4.5348   3.2251   4.8633   5.8524   8.2534

          k = 0.0833 0.2406 0.0000 (  2778 PWs)   bands (ev):

   -18.8500  -6.9071  -6.7349  -5.5344   4.1238   5.7429   6.7344   7.6790

          k = 0.0833 0.3368 0.0000 (  2785 PWs)   bands (ev):

   -17.8842  -8.9802  -6.4220  -5.6165   5.4574   5.5077   7.0881   7.9657

          k = 0.0833 0.4330 0.0000 (  2781 PWs)   bands (ev):

   -16.6222 -11.1045  -7.0577  -4.2334   3.2874   7.2433   7.8918   8.8089

          k = 0.0833 0.5292 0.0000 (  2789 PWs)   bands (ev):

   -15.1390 -13.0497  -7.3866  -2.9205   1.5132   7.7123   9.4727  10.8721

          k = 0.1667 0.2887 0.0000 (  2782 PWs)   bands (ev):

   -18.0446  -8.2354  -6.8987  -5.7957   5.2452   5.9536   6.8319   7.8432

          k = 0.1667 0.3849 0.0000 (  2786 PWs)   bands (ev):

   -16.9354  -9.9634  -7.9557  -4.5396   3.9993   6.8095   8.3161   9.3531

          k = 0.1667 0.4811 0.0000 (  2774 PWs)   bands (ev):

   -15.5573 -11.8769  -8.5315  -3.1091   2.0814   8.7949   9.6162  10.0696

          k = 0.1667 0.5774 0.0000 (  2774 PWs)   bands (ev):

   -14.3168 -13.3182  -8.7163  -2.2138   1.0099   9.5191  11.0878  11.2424

          k = 0.2500 0.4330 0.0000 (  2770 PWs)   bands (ev):

   -15.7055 -10.9963  -9.4428  -3.1935   2.3807   8.5788   9.7458  11.0929

          k = 0.2500 0.5292 0.0000 (  2781 PWs)   bands (ev):

   -14.2800 -12.4208 -10.1505  -1.8040   0.8564  10.4618  10.7164  11.7766

          k = 0.3333 0.5774 0.0000 (  2778 PWs)   bands (ev):

   -13.0597 -13.0597 -11.0532  -0.4446  -0.4446  10.1787  12.4088  12.4088

     the Fermi energy is    -0.4067 ev

!    total energy              =     -23.90989971 Ry
     estimated scf accuracy    <          4.3E-10 Ry
     smearing contrib. (-TS)   =      -0.00018232 Ry
     internal energy E=F+TS    =     -23.90971738 Ry

     The total energy is F=E-TS. E is the sum of the following terms:
     one-electron contribution =     -90.80397118 Ry
     hartree contribution      =      47.23776218 Ry
     xc contribution           =      -8.30631635 Ry
     ewald contribution        =      27.96280796 Ry

     convergence has been achieved in  13 iterations

     negative rho (up, down):  5.434E-05 0.000E+00

     Forces acting on atoms (cartesian axes, Ry/au):

     atom    1 type  1   force =     0.00000000    0.00000000   -0.00307143
     atom    2 type  1   force =     0.00000000    0.00000000    0.00307143

     Total force =     0.003071     Total SCF correction =     0.000050
     Energy error            =      2.9E-02 Ry
     Gradient error          =      3.1E-03 Ry/Bohr

     number of scf cycles    =   6
     number of bfgs steps    =   5

     energy             old  =     -23.8813082376 Ry
     energy             new  =     -23.9098997066 Ry

     CASE: energy            _new < energy            _old

     new trust radius        =       0.0087422525 bohr
     new conv_thr            =       0.0000000003 Ry


ATOMIC_POSITIONS (crystal)
C             0.3333333330        0.6666666660        0.5000000000    0   0   0
C             0.6666666660        0.3333333330        0.4999964389



     Writing config-only to output data dir ../tmp/gr.save/
     NEW-OLD atomic charge density approx. for the potential

     Check: negative core charge=   -0.000004

     negative rho (up, down):  5.459E-05 0.000E+00

     total cpu time spent up to now is       78.7 secs

     Self-consistent Calculation

     iteration #  1     ecut=    60.00 Ry     beta= 0.70
     Davidson diagonalization with overlap
     ethr =  1.00E-06,  avg # of iterations =  3.5

     Threshold (ethr) on eigenvalues was too large:
     Diagonalizing with lowered threshold

     Davidson diagonalization with overlap
     ethr =  7.01E-08,  avg # of iterations =  4.3

     negative rho (up, down):  5.432E-05 0.000E+00

     total cpu time spent up to now is       80.0 secs

     total energy              =     -23.90991035 Ry
     estimated scf accuracy    <       0.00000869 Ry

     iteration #  2     ecut=    60.00 Ry     beta= 0.70
     Davidson diagonalization with overlap
     ethr =  1.09E-07,  avg # of iterations =  2.1

     negative rho (up, down):  5.435E-05 0.000E+00

     total cpu time spent up to now is       80.6 secs

     total energy              =     -23.90991232 Ry
     estimated scf accuracy    <       0.00000230 Ry

     iteration #  3     ecut=    60.00 Ry     beta= 0.70
     Davidson diagonalization with overlap
     ethr =  2.88E-08,  avg # of iterations =  1.8

     negative rho (up, down):  5.437E-05 0.000E+00

     total cpu time spent up to now is       81.1 secs

     total energy              =     -23.90991293 Ry
     estimated scf accuracy    <       0.00000004 Ry

     iteration #  4     ecut=    60.00 Ry     beta= 0.70
     Davidson diagonalization with overlap
     ethr =  5.37E-10,  avg # of iterations =  6.3

     negative rho (up, down):  5.436E-05 0.000E+00

     total cpu time spent up to now is       81.9 secs

     total energy              =     -23.90991322 Ry
     estimated scf accuracy    <          6.2E-09 Ry

     iteration #  5     ecut=    60.00 Ry     beta= 0.70
     Davidson diagonalization with overlap
     ethr =  7.79E-11,  avg # of iterations =  4.2

     negative rho (up, down):  5.435E-05 0.000E+00

     total cpu time spent up to now is       82.5 secs

     End of self-consistent calculation

          k = 0.0000 0.0000 0.0000 (  2759 PWs)   bands (ev):

   -19.9923  -8.0921  -3.5172  -3.5172   2.5511   4.1978   5.1905   7.8801

          k = 0.0000 0.0962 0.0000 (  2774 PWs)   bands (ev):

   -19.8282  -7.8956  -4.1666  -3.8563   2.7758   4.4201   5.4110   7.9505

          k = 0.0000 0.1925 0.0000 (  2786 PWs)   bands (ev):

   -19.3377  -7.3112  -5.8023  -4.6504   3.4500   5.0842   6.0720   7.9140

          k = 0.0000 0.2887 0.0000 (  2772 PWs)   bands (ev):

   -18.5264  -7.9001  -6.3582  -5.5319   4.5721   6.1390   6.8874   7.1450

          k = 0.0000 0.3849 0.0000 (  2782 PWs)   bands (ev):

   -17.4064 -10.1041  -6.2668  -5.0869   4.4795   6.1341   7.2981   7.7602

          k = 0.0000 0.4811 0.0000 (  2776 PWs)   bands (ev):

   -16.0084 -12.2064  -6.7407  -3.6604   2.3373   7.0524   8.1583   9.7015

          k = 0.0000-0.5774 0.0000 (  2804 PWs)   bands (ev):

   -14.7378 -13.7197  -6.9034  -2.8133   1.2359   6.9754  10.5008  10.6343

          k = 0.0833 0.1443 0.0000 (  2777 PWs)   bands (ev):

   -19.5009  -7.5050  -5.1986  -4.5349   3.2255   4.8637   5.8529   8.2528

          k = 0.0833 0.2406 0.0000 (  2778 PWs)   bands (ev):

   -18.8500  -6.9071  -6.7351  -5.5346   4.1242   5.7432   6.7355   7.6788

          k = 0.0833 0.3368 0.0000 (  2785 PWs)   bands (ev):

   -17.8843  -8.9803  -6.4221  -5.6165   5.4688   5.4972   7.0884   7.9645

          k = 0.0833 0.4330 0.0000 (  2781 PWs)   bands (ev):

   -16.6222 -11.1046  -7.0579  -4.2334   3.2877   7.2435   7.8918   8.8091

          k = 0.0833 0.5292 0.0000 (  2789 PWs)   bands (ev):

   -15.1391 -13.0498  -7.3868  -2.9205   1.5134   7.7123   9.4729  10.8724

          k = 0.1667 0.2887 0.0000 (  2782 PWs)   bands (ev):

   -18.0446  -8.2355  -6.8988  -5.7957   5.2462   5.9536   6.8322   7.8430

          k = 0.1667 0.3849 0.0000 (  2786 PWs)   bands (ev):

   -16.9355  -9.9635  -7.9559  -4.5396   3.9998   6.8097   8.3161   9.3531

          k = 0.1667 0.4811 0.0000 (  2774 PWs)   bands (ev):

   -15.5574 -11.8770  -8.5316  -3.1091   2.0816   8.7951   9.6162  10.0698

          k = 0.1667 0.5774 0.0000 (  2774 PWs)   bands (ev):

   -14.3168 -13.3183  -8.7164  -2.2137   1.0101   9.5190  11.0898  11.2415

          k = 0.2500 0.4330 0.0000 (  2770 PWs)   bands (ev):

   -15.7055 -10.9964  -9.4430  -3.1935   2.3809   8.5790   9.7460  11.0930

          k = 0.2500 0.5292 0.0000 (  2781 PWs)   bands (ev):

   -14.2801 -12.4209 -10.1506  -1.8040   0.8565  10.4621  10.7166  11.7764

          k = 0.3333 0.5774 0.0000 (  2778 PWs)   bands (ev):

   -13.0598 -13.0598 -11.0533  -0.4445  -0.4445  10.1789  12.4087  12.4087

     the Fermi energy is    -0.4066 ev

!    total energy              =     -23.90991322 Ry
     estimated scf accuracy    <          2.4E-10 Ry
     smearing contrib. (-TS)   =      -0.00018232 Ry
     internal energy E=F+TS    =     -23.90973090 Ry

     The total energy is F=E-TS. E is the sum of the following terms:
     one-electron contribution =     -90.80443210 Ry
     hartree contribution      =      47.23799024 Ry
     xc contribution           =      -8.30633830 Ry
     ewald contribution        =      27.96304926 Ry

     convergence has been achieved in   5 iterations

     negative rho (up, down):  5.435E-05 0.000E+00

     Forces acting on atoms (cartesian axes, Ry/au):

     atom    1 type  1   force =     0.00000000   -0.00000000   -0.00002061
     atom    2 type  1   force =     0.00000000    0.00000000    0.00002061

     Total force =     0.000021     Total SCF correction =     0.000004
     SCF correction compared to forces is large: reduce conv_thr to get better values
     Energy error            =      1.4E-05 Ry
     Gradient error          =      2.1E-05 Ry/Bohr

     number of scf cycles    =   7
     number of bfgs steps    =   6

     energy             old  =     -23.9098997066 Ry
     energy             new  =     -23.9099132221 Ry

     CASE: energy            _new < energy            _old

     small trust_radius: resetting bfgs history

     new trust radius        =       0.0000206068 bohr
     new conv_thr            =            1.0E-11 Ry


ATOMIC_POSITIONS (crystal)
C             0.3333333330        0.6666666660        0.5000000000    0   0   0
C             0.6666666660        0.3333333330        0.4999975294



     Writing config-only to output data dir ../tmp/gr.save/
     NEW-OLD atomic charge density approx. for the potential

     Check: negative core charge=   -0.000004

     negative rho (up, down):  5.435E-05 0.000E+00

     total cpu time spent up to now is       82.8 secs

     Self-consistent Calculation

     iteration #  1     ecut=    60.00 Ry     beta= 0.70
     Davidson diagonalization with overlap
     ethr =  1.00E-06,  avg # of iterations =  1.0

     Threshold (ethr) on eigenvalues was too large:
     Diagonalizing with lowered threshold

     Davidson diagonalization with overlap
     ethr =  5.54E-13,  avg # of iterations =  8.3

     negative rho (up, down):  5.435E-05 0.000E+00

     total cpu time spent up to now is       84.2 secs

     total energy              =     -23.90991322 Ry
     estimated scf accuracy    <          2.6E-10 Ry

     iteration #  2     ecut=    60.00 Ry     beta= 0.70
     Davidson diagonalization with overlap
     ethr =  3.23E-12,  avg # of iterations =  2.1

     negative rho (up, down):  5.435E-05 0.000E+00

     total cpu time spent up to now is       84.8 secs

     total energy              =     -23.90991322 Ry
     estimated scf accuracy    <          9.9E-11 Ry

     iteration #  3     ecut=    60.00 Ry     beta= 0.70
     Davidson diagonalization with overlap
     ethr =  1.24E-12,  avg # of iterations =  1.6

     negative rho (up, down):  5.435E-05 0.000E+00

     total cpu time spent up to now is       85.3 secs

     End of self-consistent calculation

          k = 0.0000 0.0000 0.0000 (  2759 PWs)   bands (ev):

   -19.9924  -8.0922  -3.5172  -3.5172   2.5510   4.1978   5.1904   7.8800

          k = 0.0000 0.0962 0.0000 (  2774 PWs)   bands (ev):

   -19.8283  -7.8956  -4.1666  -3.8564   2.7758   4.4201   5.4109   7.9505

          k = 0.0000 0.1925 0.0000 (  2786 PWs)   bands (ev):

   -19.3377  -7.3113  -5.8024  -4.6504   3.4500   5.0842   6.0720   7.9137

          k = 0.0000 0.2887 0.0000 (  2772 PWs)   bands (ev):

   -18.5265  -7.9001  -6.3582  -5.5320   4.5721   6.1390   6.8873   7.1446

          k = 0.0000 0.3849 0.0000 (  2782 PWs)   bands (ev):

   -17.4065 -10.1042  -6.2669  -5.0869   4.4795   6.1341   7.2981   7.7602

          k = 0.0000 0.4811 0.0000 (  2776 PWs)   bands (ev):

   -16.0084 -12.2065  -6.7407  -3.6605   2.3373   7.0524   8.1583   9.7015

          k = 0.0000-0.5774 0.0000 (  2804 PWs)   bands (ev):

   -14.7379 -13.7197  -6.9034  -2.8134   1.2358   6.9753  10.5008  10.6342

          k = 0.0833 0.1443 0.0000 (  2777 PWs)   bands (ev):

   -19.5010  -7.5051  -5.1987  -4.5350   3.2255   4.8637   5.8529   8.2524

          k = 0.0833 0.2406 0.0000 (  2778 PWs)   bands (ev):

   -18.8501  -6.9071  -6.7352  -5.5346   4.1242   5.7432   6.7355   7.6786

          k = 0.0833 0.3368 0.0000 (  2785 PWs)   bands (ev):

   -17.8843  -8.9804  -6.4222  -5.6165   5.4688   5.4971   7.0884   7.9641

          k = 0.0833 0.4330 0.0000 (  2781 PWs)   bands (ev):

   -16.6223 -11.1046  -7.0579  -4.2335   3.2877   7.2435   7.8918   8.8091

          k = 0.0833 0.5292 0.0000 (  2789 PWs)   bands (ev):

   -15.1391 -13.0498  -7.3868  -2.9205   1.5134   7.7123   9.4729  10.8723

          k = 0.1667 0.2887 0.0000 (  2782 PWs)   bands (ev):

   -18.0446  -8.2356  -6.8989  -5.7958   5.2462   5.9536   6.8322   7.8430

          k = 0.1667 0.3849 0.0000 (  2786 PWs)   bands (ev):

   -16.9355  -9.9636  -7.9559  -4.5396   3.9997   6.8097   8.3161   9.3530

          k = 0.1667 0.4811 0.0000 (  2774 PWs)   bands (ev):

   -15.5574 -11.8770  -8.5316  -3.1091   2.0816   8.7951   9.6162  10.0698

          k = 0.1667 0.5774 0.0000 (  2774 PWs)   bands (ev):

   -14.3168 -13.3183  -8.7164  -2.2138   1.0101   9.5190  11.0894  11.2413

          k = 0.2500 0.4330 0.0000 (  2770 PWs)   bands (ev):

   -15.7056 -10.9964  -9.4430  -3.1935   2.3809   8.5790   9.7460  11.0929

          k = 0.2500 0.5292 0.0000 (  2781 PWs)   bands (ev):

   -14.2801 -12.4209 -10.1506  -1.8040   0.8565  10.4621  10.7165  11.7764

          k = 0.3333 0.5774 0.0000 (  2778 PWs)   bands (ev):

   -13.0598 -13.0598 -11.0534  -0.4446  -0.4446  10.1789  12.4087  12.4087

     the Fermi energy is    -0.4067 ev

!    total energy              =     -23.90991322 Ry
     estimated scf accuracy    <          1.2E-12 Ry
     smearing contrib. (-TS)   =      -0.00018232 Ry
     internal energy E=F+TS    =     -23.90973090 Ry

     The total energy is F=E-TS. E is the sum of the following terms:
     one-electron contribution =     -90.80442892 Ry
     hartree contribution      =      47.23798614 Ry
     xc contribution           =      -8.30633738 Ry
     ewald contribution        =      27.96304926 Ry

     convergence has been achieved in   3 iterations

     negative rho (up, down):  5.435E-05 0.000E+00

     Forces acting on atoms (cartesian axes, Ry/au):

     atom    1 type  1   force =     0.00000000   -0.00000000   -0.00001648
     atom    2 type  1   force =     0.00000000    0.00000000    0.00001648

     Total force =     0.000016     Total SCF correction =     0.000002
     Energy error            =      1.0E-09 Ry
     Gradient error          =      1.6E-05 Ry/Bohr

     bfgs converged in   8 scf cycles and   7 bfgs steps
     (criteria: energy <  1.0E-05 Ry, force <  1.0E-04 Ry/Bohr)

     End of BFGS Geometry Optimization

     Final energy             =     -23.9099132231 Ry

     File ../tmp/gr.bfgs deleted, as requested
Begin final coordinates

ATOMIC_POSITIONS (crystal)
C             0.3333333330        0.6666666660        0.5000000000    0   0   0
C             0.6666666660        0.3333333330        0.4999975294
End final coordinates



     Writing all to output data dir ../tmp/gr.save/

     init_run     :      0.50s CPU      0.64s WALL (       1 calls)
     electrons    :     75.91s CPU     83.04s WALL (       8 calls)
     update_pot   :      0.31s CPU      0.36s WALL (       7 calls)
     forces       :      0.60s CPU      0.66s WALL (       8 calls)

     Called by init_run:
     wfcinit      :      0.24s CPU      0.25s WALL (       1 calls)
     potinit      :      0.03s CPU      0.14s WALL (       1 calls)
     hinit0       :      0.22s CPU      0.23s WALL (       1 calls)

     Called by electrons:
     c_bands      :     67.28s CPU     73.35s WALL (      87 calls)
     sum_band     :      6.42s CPU      6.52s WALL (      87 calls)
     v_of_rho     :      1.31s CPU      1.31s WALL (      92 calls)
     newd         :      0.73s CPU      0.75s WALL (      92 calls)
     mix_rho      :      0.22s CPU      0.22s WALL (      87 calls)

     Called by c_bands:
     init_us_2    :      0.90s CPU      0.94s WALL (    3477 calls)
     init_us_2:cp :      0.90s CPU      0.94s WALL (    3477 calls)
     cegterg      :     65.25s CPU     66.08s WALL (    1727 calls)

     Called by *egterg:
     cdiaghg      :      0.59s CPU      0.60s WALL (   11108 calls)
     h_psi        :     50.17s CPU     50.89s WALL (   11391 calls)
     s_psi        :      2.26s CPU      2.29s WALL (   11391 calls)
     g_psi        :      0.42s CPU      0.42s WALL (    9645 calls)

     Called by h_psi:
     h_psi:calbec :      2.39s CPU      2.42s WALL (   11391 calls)
     vloc_psi     :     45.31s CPU     45.96s WALL (   11391 calls)
     add_vuspsi   :      2.27s CPU      2.30s WALL (   11391 calls)

     General routines
     calbec       :      3.01s CPU      3.07s WALL (   13652 calls)
     fft          :      0.72s CPU      0.73s WALL (    1110 calls)
     ffts         :      0.05s CPU      0.05s WALL (      87 calls)
     fftw         :     45.78s CPU     46.45s WALL (  139424 calls)


     PWSCF        :   1m17.50s CPU   1m26.59s WALL


   This run was terminated on:  18:40:53  24Aug2023            

=------------------------------------------------------------------------------=
   JOB DONE.
=------------------------------------------------------------------------------=
