
     Program PWSCF v.6.4.1 starts on 19Aug2023 at 23: 9:36 

     This program is part of the open-source Quantum ESPRESSO suite
     for quantum simulation of materials; please cite
         "P. Giannozzi et al., J. Phys.:Condens. Matter 21 395502 (2009);
         "P. Giannozzi et al., J. Phys.:Condens. Matter 29 465901 (2017);
          URL http://www.quantum-espresso.org", 
     in publications or presentations arising from this work. More details at
     http://www.quantum-espresso.org/quote

     Parallel version (MPI & OpenMP), running on      16 processor cores
     Number of MPI processes:                 1
     Threads/MPI process:                    16

     MPI processes distributed on     1 nodes
     Waiting for input...
     Reading input from standard input

     Current dimensions of program PWSCF are:
     Max number of different atomic species (ntypx) = 10
     Max number of k-points (npk) =  40000
     Max angular momentum in pseudopotentials (lmaxx) =  3

     Subspace diagonalization in iterative solution of the eigenvalue problem:
     a serial algorithm will be used


     G-vector sticks info
     --------------------
     sticks:   dense  smooth     PW     G-vecs:    dense   smooth      PW
     Sum         673     301     91                44715    13291    2371



     bravais-lattice index     =            4
     lattice parameter (alat)  =       4.6608  a.u.
     unit-cell volume          =     277.4405 (a.u.)^3
     number of atoms/cell      =            4
     number of atomic types    =            1
     number of electrons       =        16.00
     number of Kohn-Sham states=           12
     kinetic-energy cutoff     =      50.0000  Ry
     charge density cutoff     =     450.0000  Ry
     convergence threshold     =      1.0E-06
     mixing beta               =       0.7000
     number of iterations used =            8  plain     mixing
     Exchange-correlation      = PBE ( 1  4  3  4 0 0)

     celldm(1)=   4.660800  celldm(2)=   0.000000  celldm(3)=   3.164154
     celldm(4)=   0.000000  celldm(5)=   0.000000  celldm(6)=   0.000000

     crystal axes: (cart. coord. in units of alat)
               a(1) = (   1.000000   0.000000   0.000000 )  
               a(2) = (  -0.500000   0.866025   0.000000 )  
               a(3) = (   0.000000   0.000000   3.164154 )  

     reciprocal axes: (cart. coord. in units 2 pi/alat)
               b(1) = (  1.000000  0.577350 -0.000000 )  
               b(2) = (  0.000000  1.154701  0.000000 )  
               b(3) = (  0.000000 -0.000000  0.316040 )  


     PseudoPot. # 1 for C  read from file:
     .\C.pbe-n-rrkjus_psl.1.0.0.UPF
     MD5 check sum: 1fdd950c42eb37d8afe3dd2f8d12311e
     Pseudo is Ultrasoft + core correction, Zval =  4.0
     Generated using "atomic" code by A. Dal Corso v.6.3MaX
     Using radial grid of 1073 points,  4 beta functions with: 
                l(1) =   0
                l(2) =   0
                l(3) =   1
                l(4) =   1
     Q(r) pseudized with 0 coefficients 


     atomic species   valence    mass     pseudopotential
        C              4.00    12.01070     C ( 1.00)

     24 Sym. Ops., with inversion, found (12 have fractional translation)



   Cartesian axes

     site n.     atom                  positions (alat units)
         1           C   tau(   1) = (   0.0000000   0.0000000   0.7910386  )
         2           C   tau(   2) = (   0.0000000   0.0000000   2.3731158  )
         3           C   tau(   3) = (  -0.0000005   0.5773506   0.7910386  )
         4           C   tau(   4) = (   0.5000005   0.2886748   2.3731158  )

     number of k points=    14  gaussian smearing, width (Ry)=  0.0100
                       cart. coord. in units 2pi/alat
        k(    1) = (   0.0000000   0.0000000   0.0000000), wk =   0.0277778
        k(    2) = (   0.0000000   0.0000000  -0.1580201), wk =   0.0277778
        k(    3) = (   0.0000000   0.1924501   0.0000000), wk =   0.1666667
        k(    4) = (   0.0000000   0.1924501  -0.1580201), wk =   0.1666667
        k(    5) = (   0.0000000   0.3849002   0.0000000), wk =   0.1666667
        k(    6) = (   0.0000000   0.3849002  -0.1580201), wk =   0.1666667
        k(    7) = (   0.0000000  -0.5773503   0.0000000), wk =   0.0833333
        k(    8) = (   0.0000000  -0.5773503  -0.1580201), wk =   0.0833333
        k(    9) = (   0.1666667   0.2886751   0.0000000), wk =   0.1666667
        k(   10) = (   0.1666667   0.2886751  -0.1580201), wk =   0.1666667
        k(   11) = (   0.1666667   0.4811252   0.0000000), wk =   0.3333333
        k(   12) = (   0.1666667   0.4811252  -0.1580201), wk =   0.3333333
        k(   13) = (   0.3333333   0.5773503   0.0000000), wk =   0.0555556
        k(   14) = (   0.3333333   0.5773503  -0.1580201), wk =   0.0555556

     Dense  grid:    44715 G-vectors     FFT dimensions: (  32,  32, 100)

     Smooth grid:    13291 G-vectors     FFT dimensions: (  24,  24,  72)

     Estimated max dynamical RAM per process >      63.17 MB

     Check: negative core charge=   -0.000001

     Initial potential from superposition of free atoms

     starting charge   15.99983, renormalised to   16.00000
     Starting wfcs are   16 randomized atomic wfcs

     total cpu time spent up to now is        1.6 secs

     Self-consistent Calculation

     iteration #  1     ecut=    50.00 Ry     beta= 0.70
     Davidson diagonalization with overlap
     ethr =  1.00E-02,  avg # of iterations =  3.1

     total cpu time spent up to now is        2.8 secs

     total energy              =     -49.64577423 Ry
     Harris-Foulkes estimate   =     -49.87977389 Ry
     estimated scf accuracy    <       0.39661755 Ry

     iteration #  2     ecut=    50.00 Ry     beta= 0.70
     Davidson diagonalization with overlap
     ethr =  2.48E-03,  avg # of iterations =  2.2

     total cpu time spent up to now is        3.9 secs

     total energy              =     -49.70732051 Ry
     Harris-Foulkes estimate   =     -49.70770161 Ry
     estimated scf accuracy    <       0.00493846 Ry

     iteration #  3     ecut=    50.00 Ry     beta= 0.70
     Davidson diagonalization with overlap
     ethr =  3.09E-05,  avg # of iterations =  4.9

     total cpu time spent up to now is        5.1 secs

     total energy              =     -49.70778942 Ry
     Harris-Foulkes estimate   =     -49.70773882 Ry
     estimated scf accuracy    <       0.00033768 Ry

     iteration #  4     ecut=    50.00 Ry     beta= 0.70
     Davidson diagonalization with overlap
     ethr =  2.11E-06,  avg # of iterations =  2.1

     total cpu time spent up to now is        6.0 secs

     total energy              =     -49.70780710 Ry
     Harris-Foulkes estimate   =     -49.70780641 Ry
     estimated scf accuracy    <       0.00000100 Ry

     iteration #  5     ecut=    50.00 Ry     beta= 0.70
     Davidson diagonalization with overlap
     ethr =  6.28E-09,  avg # of iterations =  2.8

     total cpu time spent up to now is        7.4 secs

     End of self-consistent calculation

          k = 0.0000 0.0000 0.0000 (  1641 PWs)   bands (ev):

   -14.1175 -14.0336  -2.5884  -1.7400   2.3695   2.3695   2.3728   2.3729
     8.8225  13.0287  13.7593  13.7599

          k = 0.0000 0.0000-0.1580 (  1630 PWs)   bands (ev):

   -14.0759 -14.0759  -2.1905  -2.1905   2.3712   2.3712   2.3712   2.3712
    10.4825  10.4825  13.7655  13.7655

          k = 0.0000 0.1925 0.0000 (  1667 PWs)   bands (ev):

   -13.4627 -13.3828  -1.7976  -0.9768   0.0794   0.0934   1.2367   1.2446
     9.6636  13.7431  13.7438  13.8122

          k = 0.0000 0.1925-0.1580 (  1660 PWs)   bands (ev):

   -13.4232 -13.4232  -1.4119  -1.4119   0.0864   0.0864   1.2406   1.2406
    11.2797  11.2797  13.7929  13.7929

          k = 0.0000 0.3849 0.0000 (  1657 PWs)   bands (ev):

   -11.5314 -11.4629  -4.2257  -4.1931  -0.3784  -0.3678   0.4678   1.1803
    10.1843  10.5314  12.1562  13.1147

          k = 0.0000 0.3849-0.1580 (  1666 PWs)   bands (ev):

   -11.4975 -11.4975  -4.2095  -4.2095  -0.3731  -0.3731   0.8058   0.8058
    10.3345  10.3345  13.1018  13.1018

          k = 0.0000-0.5774 0.0000 (  1684 PWs)   bands (ev):

    -8.8572  -8.8284  -7.8214  -7.7988  -1.0144  -1.0032   2.9272   3.2013
     6.9782   7.3198  12.7744  12.8928

          k = 0.0000-0.5774-0.1580 (  1656 PWs)   bands (ev):

    -8.8425  -8.8425  -7.8107  -7.8107  -1.0088  -1.0088   3.0727   3.0727
     7.1064   7.1064  12.8331  12.8331

          k = 0.1667 0.2887 0.0000 (  1647 PWs)   bands (ev):

   -12.1695 -12.0974  -2.3534  -2.3410  -1.0059  -0.9969  -0.2585   0.4986
    11.3471  11.7240  11.8918  15.0697

          k = 0.1667 0.2887-0.1580 (  1654 PWs)   bands (ev):

   -12.1337 -12.1337  -2.3472  -2.3472  -1.0015  -1.0015   0.0991   0.0991
    11.8069  11.8069  12.8509  12.8509

          k = 0.1667 0.4811 0.0000 (  1651 PWs)   bands (ev):

    -9.6828  -9.6256  -5.9980  -5.9612  -2.6433  -2.6222   2.5100   3.0631
     7.8106   8.1135  14.6174  15.3662

          k = 0.1667 0.4811-0.1580 (  1658 PWs)   bands (ev):

    -9.6544  -9.6544  -5.9797  -5.9797  -2.6328  -2.6328   2.7778   2.7778
     7.9509   7.9509  15.3696  15.3696

          k = 0.3333 0.5774 0.0000 (  1653 PWs)   bands (ev):

    -7.1905  -7.1671  -7.1671  -7.1433  -5.1384  -5.1384   5.1881   5.4307
     5.4307   5.6972  16.2101  16.2101

          k = 0.3333 0.5774-0.1580 (  1674 PWs)   bands (ev):

    -7.1671  -7.1671  -7.1670  -7.1670  -5.1388  -5.1388   5.4334   5.4334
     5.4354   5.4354  15.7724  15.7724

     the Fermi energy is     5.4332 ev

!    total energy              =     -49.70780742 Ry
     Harris-Foulkes estimate   =     -49.70780787 Ry
     estimated scf accuracy    <       0.00000078 Ry

     The total energy is the sum of the following terms:

     one-electron contribution =     -23.64045855 Ry
     hartree contribution      =      18.98252184 Ry
     xc contribution           =     -18.55281351 Ry
     ewald contribution        =     -26.49610734 Ry
     smearing contrib. (-TS)   =      -0.00094986 Ry

     convergence has been achieved in   5 iterations

     Writing output data file pwscf.save\

     init_run     :      1.52s CPU      0.89s WALL (       1 calls)
     electrons    :     15.23s CPU      5.78s WALL (       1 calls)

     Called by init_run:
     wfcinit      :      0.94s CPU      0.38s WALL (       1 calls)
     potinit      :      0.12s CPU      0.03s WALL (       1 calls)
     hinit0       :      0.38s CPU      0.44s WALL (       1 calls)

     Called by electrons:
     c_bands      :     11.44s CPU      4.16s WALL (       5 calls)
     sum_band     :      3.11s CPU      1.33s WALL (       5 calls)
     v_of_rho     :      0.28s CPU      0.11s WALL (       6 calls)
     newd         :      0.45s CPU      0.18s WALL (       6 calls)
     mix_rho      :      0.00s CPU      0.01s WALL (       5 calls)

     Called by c_bands:
     init_us_2    :      0.12s CPU      0.07s WALL (     154 calls)
     cegterg      :     11.22s CPU      4.07s WALL (      70 calls)

     Called by sum_band:
     sum_band:bec :      0.20s CPU      0.09s WALL (      70 calls)
     addusdens    :      0.41s CPU      0.23s WALL (       5 calls)

     Called by *egterg:
     h_psi        :     10.50s CPU      3.84s WALL (     296 calls)
     s_psi        :      0.12s CPU      0.03s WALL (     296 calls)
     g_psi        :      0.19s CPU      0.08s WALL (     212 calls)
     cdiaghg      :      0.23s CPU      0.05s WALL (     282 calls)

     Called by h_psi:
     h_psi:pot    :     10.08s CPU      3.74s WALL (     296 calls)
     h_psi:calbec :      0.16s CPU      0.05s WALL (     296 calls)
     vloc_psi     :      9.78s CPU      3.65s WALL (     296 calls)
     add_vuspsi   :      0.14s CPU      0.04s WALL (     296 calls)

     General routines
     calbec       :      0.20s CPU      0.07s WALL (     366 calls)
     fft          :      0.02s CPU      0.02s WALL (      76 calls)
     ffts         :      0.00s CPU      0.00s WALL (      11 calls)
     fftw         :      2.16s CPU      0.57s WALL (    5792 calls)
     interpolate  :      0.03s CPU      0.01s WALL (       6 calls)

     Parallel routines

     PWSCF        :     17.47s CPU      7.43s WALL


   This run was terminated on:  23: 9:43  19Aug2023            

=------------------------------------------------------------------------------=
   JOB DONE.
=------------------------------------------------------------------------------=
