
     Program PWSCF v.6.4.1 starts on 19Aug2023 at 23: 9:43 

     This program is part of the open-source Quantum ESPRESSO suite
     for quantum simulation of materials; please cite
         "P. Giannozzi et al., J. Phys.:Condens. Matter 21 395502 (2009);
         "P. Giannozzi et al., J. Phys.:Condens. Matter 29 465901 (2017);
          URL http://www.quantum-espresso.org", 
     in publications or presentations arising from this work. More details at
     http://www.quantum-espresso.org/quote

     Parallel version (MPI & OpenMP), running on      16 processor cores
     Number of MPI processes:                 1
     Threads/MPI process:                    16

     MPI processes distributed on     1 nodes
     Waiting for input...
     Reading input from standard input

     Current dimensions of program PWSCF are:
     Max number of different atomic species (ntypx) = 10
     Max number of k-points (npk) =  40000
     Max angular momentum in pseudopotentials (lmaxx) =  3

     Atomic positions and unit cell read from directory:
     ./\pwscf.save\


     Subspace diagonalization in iterative solution of the eigenvalue problem:
     a serial algorithm will be used


     G-vector sticks info
     --------------------
     sticks:   dense  smooth     PW     G-vecs:    dense   smooth      PW
     Sum         673     301     91                44715    13291    2335



     bravais-lattice index     =            4
     lattice parameter (alat)  =       4.6608  a.u.
     unit-cell volume          =     277.4405 (a.u.)^3
     number of atoms/cell      =            4
     number of atomic types    =            1
     number of electrons       =        16.00
     number of Kohn-Sham states=           16
     kinetic-energy cutoff     =      50.0000  Ry
     charge density cutoff     =     450.0000  Ry
     Exchange-correlation      = PBE ( 1  4  3  4 0 0)

     celldm(1)=   4.660800  celldm(2)=   0.000000  celldm(3)=   3.164154
     celldm(4)=   0.000000  celldm(5)=   0.000000  celldm(6)=   0.000000

     crystal axes: (cart. coord. in units of alat)
               a(1) = (   1.000000   0.000000   0.000000 )  
               a(2) = (  -0.500000   0.866025   0.000000 )  
               a(3) = (   0.000000   0.000000   3.164154 )  

     reciprocal axes: (cart. coord. in units 2 pi/alat)
               b(1) = (  1.000000  0.577350 -0.000000 )  
               b(2) = (  0.000000  1.154701  0.000000 )  
               b(3) = (  0.000000 -0.000000  0.316040 )  


     PseudoPot. # 1 for C  read from file:
     .\C.pbe-n-rrkjus_psl.1.0.0.UPF
     MD5 check sum: 3b8ee920e3fd3ea61de576c879a41bba
     Pseudo is Ultrasoft + core correction, Zval =  4.0
     Generated using "atomic" code by A. Dal Corso v.6.3MaX
     Using radial grid of 1073 points,  4 beta functions with: 
                l(1) =   0
                l(2) =   0
                l(3) =   1
                l(4) =   1
     Q(r) pseudized with 0 coefficients 


     atomic species   valence    mass     pseudopotential
        C              4.00    12.01070     C ( 1.00)

     24 Sym. Ops., with inversion, found (12 have fractional translation)


                                    s                        frac. trans.

      isym =  1     identity                                     

 cryst.   s( 1) = (     1          0          0      )
                  (     0          1          0      )
                  (     0          0          1      )

 cart.    s( 1) = (  1.0000000  0.0000000  0.0000000 )
                  (  0.0000000  1.0000000  0.0000000 )
                  (  0.0000000  0.0000000  1.0000000 )


      isym =  2     180 deg rotation - cart. axis [0,0,1]        

 cryst.   s( 2) = (    -1          0          0      )    f =(  0.0000000 )
                  (     0         -1          0      )       (  0.0000000 )
                  (     0          0          1      )       (  0.5000000 )

 cart.    s( 2) = ( -1.0000000  0.0000000  0.0000000 )    f =(  0.0000000 )
                  (  0.0000000 -1.0000000  0.0000000 )       (  0.0000000 )
                  (  0.0000000  0.0000000  1.0000000 )       (  1.5820772 )


      isym =  3     180 deg rotation - cart. axis [0,1,0]        

 cryst.   s( 3) = (    -1          0          0      )    f =(  0.0000000 )
                  (     1          1          0      )       (  0.0000000 )
                  (     0          0         -1      )       (  0.5000000 )

 cart.    s( 3) = ( -1.0000000  0.0000000  0.0000000 )    f =(  0.0000000 )
                  (  0.0000000  1.0000000  0.0000000 )       (  0.0000000 )
                  (  0.0000000  0.0000000 -1.0000000 )       (  1.5820772 )


      isym =  4     180 deg rotation - cart. axis [1,0,0]        

 cryst.   s( 4) = (     1          0          0      )
                  (    -1         -1          0      )
                  (     0          0         -1      )

 cart.    s( 4) = (  1.0000000  0.0000000  0.0000000 )
                  (  0.0000000 -1.0000000  0.0000000 )
                  (  0.0000000  0.0000000 -1.0000000 )


      isym =  5      60 deg rotation - cryst. axis [0,0,1]       

 cryst.   s( 5) = (     1          1          0      )    f =(  0.0000000 )
                  (    -1          0          0      )       (  0.0000000 )
                  (     0          0          1      )       (  0.5000000 )

 cart.    s( 5) = (  0.5000000 -0.8660254  0.0000000 )    f =(  0.0000000 )
                  (  0.8660254  0.5000000  0.0000000 )       (  0.0000000 )
                  (  0.0000000  0.0000000  1.0000000 )       (  1.5820772 )


      isym =  6      60 deg rotation - cryst. axis [0,0,-1]      

 cryst.   s( 6) = (     0         -1          0      )    f =(  0.0000000 )
                  (     1          1          0      )       (  0.0000000 )
                  (     0          0          1      )       (  0.5000000 )

 cart.    s( 6) = (  0.5000000  0.8660254  0.0000000 )    f =(  0.0000000 )
                  ( -0.8660254  0.5000000  0.0000000 )       (  0.0000000 )
                  (  0.0000000  0.0000000  1.0000000 )       (  1.5820772 )


      isym =  7     120 deg rotation - cryst. axis [0,0,1]       

 cryst.   s( 7) = (     0          1          0      )
                  (    -1         -1          0      )
                  (     0          0          1      )

 cart.    s( 7) = ( -0.5000000 -0.8660254  0.0000000 )
                  (  0.8660254 -0.5000000  0.0000000 )
                  (  0.0000000  0.0000000  1.0000000 )


      isym =  8     120 deg rotation - cryst. axis [0,0,-1]      

 cryst.   s( 8) = (    -1         -1          0      )
                  (     1          0          0      )
                  (     0          0          1      )

 cart.    s( 8) = ( -0.5000000  0.8660254  0.0000000 )
                  ( -0.8660254 -0.5000000  0.0000000 )
                  (  0.0000000  0.0000000  1.0000000 )


      isym =  9     180 deg rotation - cryst. axis [1,-1,0]      

 cryst.   s( 9) = (     0         -1          0      )    f =(  0.0000000 )
                  (    -1          0          0      )       (  0.0000000 )
                  (     0          0         -1      )       (  0.5000000 )

 cart.    s( 9) = (  0.5000000 -0.8660254  0.0000000 )    f =(  0.0000000 )
                  ( -0.8660254 -0.5000000  0.0000000 )       (  0.0000000 )
                  (  0.0000000  0.0000000 -1.0000000 )       (  1.5820772 )


      isym = 10     180 deg rotation - cryst. axis [2,1,0]       

 cryst.   s(10) = (     1          1          0      )    f =(  0.0000000 )
                  (     0         -1          0      )       (  0.0000000 )
                  (     0          0         -1      )       (  0.5000000 )

 cart.    s(10) = (  0.5000000  0.8660254  0.0000000 )    f =(  0.0000000 )
                  (  0.8660254 -0.5000000  0.0000000 )       (  0.0000000 )
                  (  0.0000000  0.0000000 -1.0000000 )       (  1.5820772 )


      isym = 11     180 deg rotation - cryst. axis [0,1,0]       

 cryst.   s(11) = (    -1         -1          0      )
                  (     0          1          0      )
                  (     0          0         -1      )

 cart.    s(11) = ( -0.5000000 -0.8660254  0.0000000 )
                  ( -0.8660254  0.5000000  0.0000000 )
                  (  0.0000000  0.0000000 -1.0000000 )


      isym = 12     180 deg rotation - cryst. axis [1,1,0]       

 cryst.   s(12) = (     0          1          0      )
                  (     1          0          0      )
                  (     0          0         -1      )

 cart.    s(12) = ( -0.5000000  0.8660254  0.0000000 )
                  (  0.8660254  0.5000000  0.0000000 )
                  (  0.0000000  0.0000000 -1.0000000 )


      isym = 13     inversion                                    

 cryst.   s(13) = (    -1          0          0      )
                  (     0         -1          0      )
                  (     0          0         -1      )

 cart.    s(13) = ( -1.0000000  0.0000000  0.0000000 )
                  (  0.0000000 -1.0000000  0.0000000 )
                  (  0.0000000  0.0000000 -1.0000000 )


      isym = 14     inv. 180 deg rotation - cart. axis [0,0,1]   

 cryst.   s(14) = (     1          0          0      )    f =(  0.0000000 )
                  (     0          1          0      )       (  0.0000000 )
                  (     0          0         -1      )       (  0.5000000 )

 cart.    s(14) = (  1.0000000  0.0000000  0.0000000 )    f =(  0.0000000 )
                  (  0.0000000  1.0000000  0.0000000 )       (  0.0000000 )
                  (  0.0000000  0.0000000 -1.0000000 )       (  1.5820772 )


      isym = 15     inv. 180 deg rotation - cart. axis [0,1,0]   

 cryst.   s(15) = (     1          0          0      )    f =(  0.0000000 )
                  (    -1         -1          0      )       (  0.0000000 )
                  (     0          0          1      )       (  0.5000000 )

 cart.    s(15) = (  1.0000000  0.0000000  0.0000000 )    f =(  0.0000000 )
                  (  0.0000000 -1.0000000  0.0000000 )       (  0.0000000 )
                  (  0.0000000  0.0000000  1.0000000 )       (  1.5820772 )


      isym = 16     inv. 180 deg rotation - cart. axis [1,0,0]   

 cryst.   s(16) = (    -1          0          0      )
                  (     1          1          0      )
                  (     0          0          1      )

 cart.    s(16) = ( -1.0000000  0.0000000  0.0000000 )
                  (  0.0000000  1.0000000  0.0000000 )
                  (  0.0000000  0.0000000  1.0000000 )


      isym = 17     inv.  60 deg rotation - cryst. axis [0,0,1]  

 cryst.   s(17) = (    -1         -1          0      )    f =(  0.0000000 )
                  (     1          0          0      )       (  0.0000000 )
                  (     0          0         -1      )       (  0.5000000 )

 cart.    s(17) = ( -0.5000000  0.8660254  0.0000000 )    f =(  0.0000000 )
                  ( -0.8660254 -0.5000000  0.0000000 )       (  0.0000000 )
                  (  0.0000000  0.0000000 -1.0000000 )       (  1.5820772 )


      isym = 18     inv.  60 deg rotation - cryst. axis [0,0,-1] 

 cryst.   s(18) = (     0          1          0      )    f =(  0.0000000 )
                  (    -1         -1          0      )       (  0.0000000 )
                  (     0          0         -1      )       (  0.5000000 )

 cart.    s(18) = ( -0.5000000 -0.8660254  0.0000000 )    f =(  0.0000000 )
                  (  0.8660254 -0.5000000  0.0000000 )       (  0.0000000 )
                  (  0.0000000  0.0000000 -1.0000000 )       (  1.5820772 )


      isym = 19     inv. 120 deg rotation - cryst. axis [0,0,1]  

 cryst.   s(19) = (     0         -1          0      )
                  (     1          1          0      )
                  (     0          0         -1      )

 cart.    s(19) = (  0.5000000  0.8660254  0.0000000 )
                  ( -0.8660254  0.5000000  0.0000000 )
                  (  0.0000000  0.0000000 -1.0000000 )


      isym = 20     inv. 120 deg rotation - cryst. axis [0,0,-1] 

 cryst.   s(20) = (     1          1          0      )
                  (    -1          0          0      )
                  (     0          0         -1      )

 cart.    s(20) = (  0.5000000 -0.8660254  0.0000000 )
                  (  0.8660254  0.5000000  0.0000000 )
                  (  0.0000000  0.0000000 -1.0000000 )


      isym = 21     inv. 180 deg rotation - cryst. axis [1,-1,0] 

 cryst.   s(21) = (     0          1          0      )    f =(  0.0000000 )
                  (     1          0          0      )       (  0.0000000 )
                  (     0          0          1      )       (  0.5000000 )

 cart.    s(21) = ( -0.5000000  0.8660254  0.0000000 )    f =(  0.0000000 )
                  (  0.8660254  0.5000000  0.0000000 )       (  0.0000000 )
                  (  0.0000000  0.0000000  1.0000000 )       (  1.5820772 )


      isym = 22     inv. 180 deg rotation - cryst. axis [2,1,0]  

 cryst.   s(22) = (    -1         -1          0      )    f =(  0.0000000 )
                  (     0          1          0      )       (  0.0000000 )
                  (     0          0          1      )       (  0.5000000 )

 cart.    s(22) = ( -0.5000000 -0.8660254  0.0000000 )    f =(  0.0000000 )
                  ( -0.8660254  0.5000000  0.0000000 )       (  0.0000000 )
                  (  0.0000000  0.0000000  1.0000000 )       (  1.5820772 )


      isym = 23     inv. 180 deg rotation - cryst. axis [0,1,0]  

 cryst.   s(23) = (     1          1          0      )
                  (     0         -1          0      )
                  (     0          0          1      )

 cart.    s(23) = (  0.5000000  0.8660254  0.0000000 )
                  (  0.8660254 -0.5000000  0.0000000 )
                  (  0.0000000  0.0000000  1.0000000 )


      isym = 24     inv. 180 deg rotation - cryst. axis [1,1,0]  

 cryst.   s(24) = (     0         -1          0      )
                  (    -1          0          0      )
                  (     0          0          1      )

 cart.    s(24) = (  0.5000000 -0.8660254  0.0000000 )
                  ( -0.8660254 -0.5000000  0.0000000 )
                  (  0.0000000  0.0000000  1.0000000 )


     point group D_6h(6/mmm)
     there are 12 classes
     the character table:

       E     2C6   2C3   C2    3C2'  3C2'' i     2S3   2S6   s_h   3s_d  3s_v 
A_1g   1.00  1.00  1.00  1.00  1.00  1.00  1.00  1.00  1.00  1.00  1.00  1.00
A_2g   1.00  1.00  1.00  1.00 -1.00 -1.00  1.00  1.00  1.00  1.00 -1.00 -1.00
B_1g   1.00 -1.00  1.00 -1.00  1.00 -1.00  1.00 -1.00  1.00 -1.00  1.00 -1.00
B_2g   1.00 -1.00  1.00 -1.00 -1.00  1.00  1.00 -1.00  1.00 -1.00 -1.00  1.00
E_1g   2.00  1.00 -1.00 -2.00  0.00  0.00  2.00  1.00 -1.00 -2.00  0.00  0.00
E_2g   2.00 -1.00 -1.00  2.00  0.00  0.00  2.00 -1.00 -1.00  2.00  0.00  0.00
A_1u   1.00  1.00  1.00  1.00  1.00  1.00 -1.00 -1.00 -1.00 -1.00 -1.00 -1.00
A_2u   1.00  1.00  1.00  1.00 -1.00 -1.00 -1.00 -1.00 -1.00 -1.00  1.00  1.00
B_1u   1.00 -1.00  1.00 -1.00  1.00 -1.00 -1.00  1.00 -1.00  1.00 -1.00  1.00
B_2u   1.00 -1.00  1.00 -1.00 -1.00  1.00 -1.00  1.00 -1.00  1.00  1.00 -1.00
E_1u   2.00  1.00 -1.00 -2.00  0.00  0.00 -2.00 -1.00  1.00  2.00  0.00  0.00
E_2u   2.00 -1.00 -1.00  2.00  0.00  0.00 -2.00  1.00  1.00 -2.00  0.00  0.00

     the symmetry operations in each class and the name of the first element:

     E        1
          identity                                               
     2C6      5    6
           60 deg rotation - cryst. axis [0,0,1]                 
     2C3      7    8
          120 deg rotation - cryst. axis [0,0,1]                 
     C2       2
          180 deg rotation - cart. axis [0,0,1]                  
     3C2'     4   12   11
          180 deg rotation - cart. axis [1,0,0]                  
     3C2''    3    9   10
          180 deg rotation - cart. axis [0,1,0]                  
     i       13
          inversion                                              
     2S3     17   18
          inv.  60 deg rotation - cryst. axis [0,0,1]            
     2S6     19   20
          inv. 120 deg rotation - cryst. axis [0,0,1]            
     s_h     14
          inv. 180 deg rotation - cart. axis [0,0,1]             
     3s_d    16   24   23
          inv. 180 deg rotation - cart. axis [1,0,0]             
     3s_v    15   21   22
          inv. 180 deg rotation - cart. axis [0,1,0]             

   Cartesian axes

     site n.     atom                  positions (alat units)
         1           C   tau(   1) = (   0.0000000   0.0000000   0.7910386  )
         2           C   tau(   2) = (   0.0000000   0.0000000   2.3731158  )
         3           C   tau(   3) = (  -0.0000005   0.5773506   0.7910386  )
         4           C   tau(   4) = (   0.5000005   0.2886748   2.3731158  )

   Crystallographic axes

     site n.     atom                  positions (cryst. coord.)
         1           C   tau(   1) = (  0.0000000  0.0000000  0.2500000  )
         2           C   tau(   2) = (  0.0000000  0.0000000  0.7500000  )
         3           C   tau(   3) = (  0.3333330  0.6666670  0.2500000  )
         4           C   tau(   4) = (  0.6666670  0.3333330  0.7500000  )

     number of k points=   312 (tetrahedron method)
                       cart. coord. in units 2pi/alat
        k(    1) = (   0.0000000   0.0000000   0.0000000), wk =   0.0004132
        k(    2) = (   0.0000000   0.0000000   0.0316040), wk =   0.0008264
        k(    3) = (   0.0000000   0.0000000   0.0632080), wk =   0.0008264
        k(    4) = (   0.0000000   0.0000000   0.0948121), wk =   0.0008264
        k(    5) = (   0.0000000   0.0000000   0.1264161), wk =   0.0008264
        k(    6) = (   0.0000000   0.0000000  -0.1580201), wk =   0.0004132
        k(    7) = (   0.0000000   0.0524864   0.0000000), wk =   0.0024793
        k(    8) = (   0.0000000   0.0524864   0.0316040), wk =   0.0049587
        k(    9) = (   0.0000000   0.0524864   0.0632080), wk =   0.0049587
        k(   10) = (   0.0000000   0.0524864   0.0948121), wk =   0.0049587
        k(   11) = (   0.0000000   0.0524864   0.1264161), wk =   0.0049587
        k(   12) = (   0.0000000   0.0524864  -0.1580201), wk =   0.0024793
        k(   13) = (   0.0000000   0.1049728   0.0000000), wk =   0.0024793
        k(   14) = (   0.0000000   0.1049728   0.0316040), wk =   0.0049587
        k(   15) = (   0.0000000   0.1049728   0.0632080), wk =   0.0049587
        k(   16) = (   0.0000000   0.1049728   0.0948121), wk =   0.0049587
        k(   17) = (   0.0000000   0.1049728   0.1264161), wk =   0.0049587
        k(   18) = (   0.0000000   0.1049728  -0.1580201), wk =   0.0024793
        k(   19) = (   0.0000000   0.1574592   0.0000000), wk =   0.0024793
        k(   20) = (   0.0000000   0.1574592   0.0316040), wk =   0.0049587
        k(   21) = (   0.0000000   0.1574592   0.0632080), wk =   0.0049587
        k(   22) = (   0.0000000   0.1574592   0.0948121), wk =   0.0049587
        k(   23) = (   0.0000000   0.1574592   0.1264161), wk =   0.0049587
        k(   24) = (   0.0000000   0.1574592  -0.1580201), wk =   0.0024793
        k(   25) = (   0.0000000   0.2099456   0.0000000), wk =   0.0024793
        k(   26) = (   0.0000000   0.2099456   0.0316040), wk =   0.0049587
        k(   27) = (   0.0000000   0.2099456   0.0632080), wk =   0.0049587
        k(   28) = (   0.0000000   0.2099456   0.0948121), wk =   0.0049587
        k(   29) = (   0.0000000   0.2099456   0.1264161), wk =   0.0049587
        k(   30) = (   0.0000000   0.2099456  -0.1580201), wk =   0.0024793
        k(   31) = (   0.0000000   0.2624319   0.0000000), wk =   0.0024793
        k(   32) = (   0.0000000   0.2624319   0.0316040), wk =   0.0049587
        k(   33) = (   0.0000000   0.2624319   0.0632080), wk =   0.0049587
        k(   34) = (   0.0000000   0.2624319   0.0948121), wk =   0.0049587
        k(   35) = (   0.0000000   0.2624319   0.1264161), wk =   0.0049587
        k(   36) = (   0.0000000   0.2624319  -0.1580201), wk =   0.0024793
        k(   37) = (   0.0000000   0.3149183   0.0000000), wk =   0.0024793
        k(   38) = (   0.0000000   0.3149183   0.0316040), wk =   0.0049587
        k(   39) = (   0.0000000   0.3149183   0.0632080), wk =   0.0049587
        k(   40) = (   0.0000000   0.3149183   0.0948121), wk =   0.0049587
        k(   41) = (   0.0000000   0.3149183   0.1264161), wk =   0.0049587
        k(   42) = (   0.0000000   0.3149183  -0.1580201), wk =   0.0024793
        k(   43) = (   0.0000000   0.3674047   0.0000000), wk =   0.0024793
        k(   44) = (   0.0000000   0.3674047   0.0316040), wk =   0.0049587
        k(   45) = (   0.0000000   0.3674047   0.0632080), wk =   0.0049587
        k(   46) = (   0.0000000   0.3674047   0.0948121), wk =   0.0049587
        k(   47) = (   0.0000000   0.3674047   0.1264161), wk =   0.0049587
        k(   48) = (   0.0000000   0.3674047  -0.1580201), wk =   0.0024793
        k(   49) = (   0.0000000   0.4198911   0.0000000), wk =   0.0024793
        k(   50) = (   0.0000000   0.4198911   0.0316040), wk =   0.0049587
        k(   51) = (   0.0000000   0.4198911   0.0632080), wk =   0.0049587
        k(   52) = (   0.0000000   0.4198911   0.0948121), wk =   0.0049587
        k(   53) = (   0.0000000   0.4198911   0.1264161), wk =   0.0049587
        k(   54) = (   0.0000000   0.4198911  -0.1580201), wk =   0.0024793
        k(   55) = (   0.0000000   0.4723775   0.0000000), wk =   0.0024793
        k(   56) = (   0.0000000   0.4723775   0.0316040), wk =   0.0049587
        k(   57) = (   0.0000000   0.4723775   0.0632080), wk =   0.0049587
        k(   58) = (   0.0000000   0.4723775   0.0948121), wk =   0.0049587
        k(   59) = (   0.0000000   0.4723775   0.1264161), wk =   0.0049587
        k(   60) = (   0.0000000   0.4723775  -0.1580201), wk =   0.0024793
        k(   61) = (   0.0000000   0.5248639   0.0000000), wk =   0.0024793
        k(   62) = (   0.0000000   0.5248639   0.0316040), wk =   0.0049587
        k(   63) = (   0.0000000   0.5248639   0.0632080), wk =   0.0049587
        k(   64) = (   0.0000000   0.5248639   0.0948121), wk =   0.0049587
        k(   65) = (   0.0000000   0.5248639   0.1264161), wk =   0.0049587
        k(   66) = (   0.0000000   0.5248639  -0.1580201), wk =   0.0024793
        k(   67) = (   0.0000000  -0.5773503   0.0000000), wk =   0.0012397
        k(   68) = (   0.0000000  -0.5773503   0.0316040), wk =   0.0024793
        k(   69) = (   0.0000000  -0.5773503   0.0632080), wk =   0.0024793
        k(   70) = (   0.0000000  -0.5773503   0.0948121), wk =   0.0024793
        k(   71) = (   0.0000000  -0.5773503   0.1264161), wk =   0.0024793
        k(   72) = (   0.0000000  -0.5773503  -0.1580201), wk =   0.0012397
        k(   73) = (   0.0454545   0.0787296   0.0000000), wk =   0.0024793
        k(   74) = (   0.0454545   0.0787296   0.0316040), wk =   0.0049587
        k(   75) = (   0.0454545   0.0787296   0.0632080), wk =   0.0049587
        k(   76) = (   0.0454545   0.0787296   0.0948121), wk =   0.0049587
        k(   77) = (   0.0454545   0.0787296   0.1264161), wk =   0.0049587
        k(   78) = (   0.0454545   0.0787296  -0.1580201), wk =   0.0024793
        k(   79) = (   0.0454545   0.1312160   0.0000000), wk =   0.0049587
        k(   80) = (   0.0454545   0.1312160   0.0316040), wk =   0.0099174
        k(   81) = (   0.0454545   0.1312160   0.0632080), wk =   0.0099174
        k(   82) = (   0.0454545   0.1312160   0.0948121), wk =   0.0099174
        k(   83) = (   0.0454545   0.1312160   0.1264161), wk =   0.0099174
        k(   84) = (   0.0454545   0.1312160  -0.1580201), wk =   0.0049587
        k(   85) = (   0.0454545   0.1837024   0.0000000), wk =   0.0049587
        k(   86) = (   0.0454545   0.1837024   0.0316040), wk =   0.0099174
        k(   87) = (   0.0454545   0.1837024   0.0632080), wk =   0.0099174
        k(   88) = (   0.0454545   0.1837024   0.0948121), wk =   0.0099174
        k(   89) = (   0.0454545   0.1837024   0.1264161), wk =   0.0099174
        k(   90) = (   0.0454545   0.1837024  -0.1580201), wk =   0.0049587
        k(   91) = (   0.0454545   0.2361887   0.0000000), wk =   0.0049587
        k(   92) = (   0.0454545   0.2361887   0.0316040), wk =   0.0099174
        k(   93) = (   0.0454545   0.2361887   0.0632080), wk =   0.0099174
        k(   94) = (   0.0454545   0.2361887   0.0948121), wk =   0.0099174
        k(   95) = (   0.0454545   0.2361887   0.1264161), wk =   0.0099174
        k(   96) = (   0.0454545   0.2361887  -0.1580201), wk =   0.0049587
        k(   97) = (   0.0454545   0.2886751   0.0000000), wk =   0.0049587
        k(   98) = (   0.0454545   0.2886751   0.0316040), wk =   0.0099174
        k(   99) = (   0.0454545   0.2886751   0.0632080), wk =   0.0099174
        k(  100) = (   0.0454545   0.2886751   0.0948121), wk =   0.0099174
        k(  101) = (   0.0454545   0.2886751   0.1264161), wk =   0.0099174
        k(  102) = (   0.0454545   0.2886751  -0.1580201), wk =   0.0049587
        k(  103) = (   0.0454545   0.3411615   0.0000000), wk =   0.0049587
        k(  104) = (   0.0454545   0.3411615   0.0316040), wk =   0.0099174
        k(  105) = (   0.0454545   0.3411615   0.0632080), wk =   0.0099174
        k(  106) = (   0.0454545   0.3411615   0.0948121), wk =   0.0099174
        k(  107) = (   0.0454545   0.3411615   0.1264161), wk =   0.0099174
        k(  108) = (   0.0454545   0.3411615  -0.1580201), wk =   0.0049587
        k(  109) = (   0.0454545   0.3936479   0.0000000), wk =   0.0049587
        k(  110) = (   0.0454545   0.3936479   0.0316040), wk =   0.0099174
        k(  111) = (   0.0454545   0.3936479   0.0632080), wk =   0.0099174
        k(  112) = (   0.0454545   0.3936479   0.0948121), wk =   0.0099174
        k(  113) = (   0.0454545   0.3936479   0.1264161), wk =   0.0099174
        k(  114) = (   0.0454545   0.3936479  -0.1580201), wk =   0.0049587
        k(  115) = (   0.0454545   0.4461343   0.0000000), wk =   0.0049587
        k(  116) = (   0.0454545   0.4461343   0.0316040), wk =   0.0099174
        k(  117) = (   0.0454545   0.4461343   0.0632080), wk =   0.0099174
        k(  118) = (   0.0454545   0.4461343   0.0948121), wk =   0.0099174
        k(  119) = (   0.0454545   0.4461343   0.1264161), wk =   0.0099174
        k(  120) = (   0.0454545   0.4461343  -0.1580201), wk =   0.0049587
        k(  121) = (   0.0454545   0.4986207   0.0000000), wk =   0.0049587
        k(  122) = (   0.0454545   0.4986207   0.0316040), wk =   0.0099174
        k(  123) = (   0.0454545   0.4986207   0.0632080), wk =   0.0099174
        k(  124) = (   0.0454545   0.4986207   0.0948121), wk =   0.0099174
        k(  125) = (   0.0454545   0.4986207   0.1264161), wk =   0.0099174
        k(  126) = (   0.0454545   0.4986207  -0.1580201), wk =   0.0049587
        k(  127) = (   0.0454545   0.5511071   0.0000000), wk =   0.0049587
        k(  128) = (   0.0454545   0.5511071   0.0316040), wk =   0.0099174
        k(  129) = (   0.0454545   0.5511071   0.0632080), wk =   0.0099174
        k(  130) = (   0.0454545   0.5511071   0.0948121), wk =   0.0099174
        k(  131) = (   0.0454545   0.5511071   0.1264161), wk =   0.0099174
        k(  132) = (   0.0454545   0.5511071  -0.1580201), wk =   0.0049587
        k(  133) = (   0.0909091   0.1574592   0.0000000), wk =   0.0024793
        k(  134) = (   0.0909091   0.1574592   0.0316040), wk =   0.0049587
        k(  135) = (   0.0909091   0.1574592   0.0632080), wk =   0.0049587
        k(  136) = (   0.0909091   0.1574592   0.0948121), wk =   0.0049587
        k(  137) = (   0.0909091   0.1574592   0.1264161), wk =   0.0049587
        k(  138) = (   0.0909091   0.1574592  -0.1580201), wk =   0.0024793
        k(  139) = (   0.0909091   0.2099456   0.0000000), wk =   0.0049587
        k(  140) = (   0.0909091   0.2099456   0.0316040), wk =   0.0099174
        k(  141) = (   0.0909091   0.2099456   0.0632080), wk =   0.0099174
        k(  142) = (   0.0909091   0.2099456   0.0948121), wk =   0.0099174
        k(  143) = (   0.0909091   0.2099456   0.1264161), wk =   0.0099174
        k(  144) = (   0.0909091   0.2099456  -0.1580201), wk =   0.0049587
        k(  145) = (   0.0909091   0.2624319   0.0000000), wk =   0.0049587
        k(  146) = (   0.0909091   0.2624319   0.0316040), wk =   0.0099174
        k(  147) = (   0.0909091   0.2624319   0.0632080), wk =   0.0099174
        k(  148) = (   0.0909091   0.2624319   0.0948121), wk =   0.0099174
        k(  149) = (   0.0909091   0.2624319   0.1264161), wk =   0.0099174
        k(  150) = (   0.0909091   0.2624319  -0.1580201), wk =   0.0049587
        k(  151) = (   0.0909091   0.3149183   0.0000000), wk =   0.0049587
        k(  152) = (   0.0909091   0.3149183   0.0316040), wk =   0.0099174
        k(  153) = (   0.0909091   0.3149183   0.0632080), wk =   0.0099174
        k(  154) = (   0.0909091   0.3149183   0.0948121), wk =   0.0099174
        k(  155) = (   0.0909091   0.3149183   0.1264161), wk =   0.0099174
        k(  156) = (   0.0909091   0.3149183  -0.1580201), wk =   0.0049587
        k(  157) = (   0.0909091   0.3674047   0.0000000), wk =   0.0049587
        k(  158) = (   0.0909091   0.3674047   0.0316040), wk =   0.0099174
        k(  159) = (   0.0909091   0.3674047   0.0632080), wk =   0.0099174
        k(  160) = (   0.0909091   0.3674047   0.0948121), wk =   0.0099174
        k(  161) = (   0.0909091   0.3674047   0.1264161), wk =   0.0099174
        k(  162) = (   0.0909091   0.3674047  -0.1580201), wk =   0.0049587
        k(  163) = (   0.0909091   0.4198911   0.0000000), wk =   0.0049587
        k(  164) = (   0.0909091   0.4198911   0.0316040), wk =   0.0099174
        k(  165) = (   0.0909091   0.4198911   0.0632080), wk =   0.0099174
        k(  166) = (   0.0909091   0.4198911   0.0948121), wk =   0.0099174
        k(  167) = (   0.0909091   0.4198911   0.1264161), wk =   0.0099174
        k(  168) = (   0.0909091   0.4198911  -0.1580201), wk =   0.0049587
        k(  169) = (   0.0909091   0.4723775   0.0000000), wk =   0.0049587
        k(  170) = (   0.0909091   0.4723775   0.0316040), wk =   0.0099174
        k(  171) = (   0.0909091   0.4723775   0.0632080), wk =   0.0099174
        k(  172) = (   0.0909091   0.4723775   0.0948121), wk =   0.0099174
        k(  173) = (   0.0909091   0.4723775   0.1264161), wk =   0.0099174
        k(  174) = (   0.0909091   0.4723775  -0.1580201), wk =   0.0049587
        k(  175) = (   0.0909091   0.5248639   0.0000000), wk =   0.0049587
        k(  176) = (   0.0909091   0.5248639   0.0316040), wk =   0.0099174
        k(  177) = (   0.0909091   0.5248639   0.0632080), wk =   0.0099174
        k(  178) = (   0.0909091   0.5248639   0.0948121), wk =   0.0099174
        k(  179) = (   0.0909091   0.5248639   0.1264161), wk =   0.0099174
        k(  180) = (   0.0909091   0.5248639  -0.1580201), wk =   0.0049587
        k(  181) = (   0.0909091   0.5773503   0.0000000), wk =   0.0024793
        k(  182) = (   0.0909091   0.5773503   0.0316040), wk =   0.0049587
        k(  183) = (   0.0909091   0.5773503   0.0632080), wk =   0.0049587
        k(  184) = (   0.0909091   0.5773503   0.0948121), wk =   0.0049587
        k(  185) = (   0.0909091   0.5773503   0.1264161), wk =   0.0049587
        k(  186) = (   0.0909091   0.5773503  -0.1580201), wk =   0.0024793
        k(  187) = (   0.1363636   0.2361887   0.0000000), wk =   0.0024793
        k(  188) = (   0.1363636   0.2361887   0.0316040), wk =   0.0049587
        k(  189) = (   0.1363636   0.2361887   0.0632080), wk =   0.0049587
        k(  190) = (   0.1363636   0.2361887   0.0948121), wk =   0.0049587
        k(  191) = (   0.1363636   0.2361887   0.1264161), wk =   0.0049587
        k(  192) = (   0.1363636   0.2361887  -0.1580201), wk =   0.0024793
        k(  193) = (   0.1363636   0.2886751   0.0000000), wk =   0.0049587
        k(  194) = (   0.1363636   0.2886751   0.0316040), wk =   0.0099174
        k(  195) = (   0.1363636   0.2886751   0.0632080), wk =   0.0099174
        k(  196) = (   0.1363636   0.2886751   0.0948121), wk =   0.0099174
        k(  197) = (   0.1363636   0.2886751   0.1264161), wk =   0.0099174
        k(  198) = (   0.1363636   0.2886751  -0.1580201), wk =   0.0049587
        k(  199) = (   0.1363636   0.3411615   0.0000000), wk =   0.0049587
        k(  200) = (   0.1363636   0.3411615   0.0316040), wk =   0.0099174
        k(  201) = (   0.1363636   0.3411615   0.0632080), wk =   0.0099174
        k(  202) = (   0.1363636   0.3411615   0.0948121), wk =   0.0099174
        k(  203) = (   0.1363636   0.3411615   0.1264161), wk =   0.0099174
        k(  204) = (   0.1363636   0.3411615  -0.1580201), wk =   0.0049587
        k(  205) = (   0.1363636   0.3936479   0.0000000), wk =   0.0049587
        k(  206) = (   0.1363636   0.3936479   0.0316040), wk =   0.0099174
        k(  207) = (   0.1363636   0.3936479   0.0632080), wk =   0.0099174
        k(  208) = (   0.1363636   0.3936479   0.0948121), wk =   0.0099174
        k(  209) = (   0.1363636   0.3936479   0.1264161), wk =   0.0099174
        k(  210) = (   0.1363636   0.3936479  -0.1580201), wk =   0.0049587
        k(  211) = (   0.1363636   0.4461343   0.0000000), wk =   0.0049587
        k(  212) = (   0.1363636   0.4461343   0.0316040), wk =   0.0099174
        k(  213) = (   0.1363636   0.4461343   0.0632080), wk =   0.0099174
        k(  214) = (   0.1363636   0.4461343   0.0948121), wk =   0.0099174
        k(  215) = (   0.1363636   0.4461343   0.1264161), wk =   0.0099174
        k(  216) = (   0.1363636   0.4461343  -0.1580201), wk =   0.0049587
        k(  217) = (   0.1363636   0.4986207   0.0000000), wk =   0.0049587
        k(  218) = (   0.1363636   0.4986207   0.0316040), wk =   0.0099174
        k(  219) = (   0.1363636   0.4986207   0.0632080), wk =   0.0099174
        k(  220) = (   0.1363636   0.4986207   0.0948121), wk =   0.0099174
        k(  221) = (   0.1363636   0.4986207   0.1264161), wk =   0.0099174
        k(  222) = (   0.1363636   0.4986207  -0.1580201), wk =   0.0049587
        k(  223) = (   0.1363636   0.5511071   0.0000000), wk =   0.0049587
        k(  224) = (   0.1363636   0.5511071   0.0316040), wk =   0.0099174
        k(  225) = (   0.1363636   0.5511071   0.0632080), wk =   0.0099174
        k(  226) = (   0.1363636   0.5511071   0.0948121), wk =   0.0099174
        k(  227) = (   0.1363636   0.5511071   0.1264161), wk =   0.0099174
        k(  228) = (   0.1363636   0.5511071  -0.1580201), wk =   0.0049587
        k(  229) = (   0.1818182   0.3149183   0.0000000), wk =   0.0024793
        k(  230) = (   0.1818182   0.3149183   0.0316040), wk =   0.0049587
        k(  231) = (   0.1818182   0.3149183   0.0632080), wk =   0.0049587
        k(  232) = (   0.1818182   0.3149183   0.0948121), wk =   0.0049587
        k(  233) = (   0.1818182   0.3149183   0.1264161), wk =   0.0049587
        k(  234) = (   0.1818182   0.3149183  -0.1580201), wk =   0.0024793
        k(  235) = (   0.1818182   0.3674047   0.0000000), wk =   0.0049587
        k(  236) = (   0.1818182   0.3674047   0.0316040), wk =   0.0099174
        k(  237) = (   0.1818182   0.3674047   0.0632080), wk =   0.0099174
        k(  238) = (   0.1818182   0.3674047   0.0948121), wk =   0.0099174
        k(  239) = (   0.1818182   0.3674047   0.1264161), wk =   0.0099174
        k(  240) = (   0.1818182   0.3674047  -0.1580201), wk =   0.0049587
        k(  241) = (   0.1818182   0.4198911   0.0000000), wk =   0.0049587
        k(  242) = (   0.1818182   0.4198911   0.0316040), wk =   0.0099174
        k(  243) = (   0.1818182   0.4198911   0.0632080), wk =   0.0099174
        k(  244) = (   0.1818182   0.4198911   0.0948121), wk =   0.0099174
        k(  245) = (   0.1818182   0.4198911   0.1264161), wk =   0.0099174
        k(  246) = (   0.1818182   0.4198911  -0.1580201), wk =   0.0049587
        k(  247) = (   0.1818182   0.4723775   0.0000000), wk =   0.0049587
        k(  248) = (   0.1818182   0.4723775   0.0316040), wk =   0.0099174
        k(  249) = (   0.1818182   0.4723775   0.0632080), wk =   0.0099174
        k(  250) = (   0.1818182   0.4723775   0.0948121), wk =   0.0099174
        k(  251) = (   0.1818182   0.4723775   0.1264161), wk =   0.0099174
        k(  252) = (   0.1818182   0.4723775  -0.1580201), wk =   0.0049587
        k(  253) = (   0.1818182   0.5248639   0.0000000), wk =   0.0049587
        k(  254) = (   0.1818182   0.5248639   0.0316040), wk =   0.0099174
        k(  255) = (   0.1818182   0.5248639   0.0632080), wk =   0.0099174
        k(  256) = (   0.1818182   0.5248639   0.0948121), wk =   0.0099174
        k(  257) = (   0.1818182   0.5248639   0.1264161), wk =   0.0099174
        k(  258) = (   0.1818182   0.5248639  -0.1580201), wk =   0.0049587
        k(  259) = (   0.1818182   0.5773503   0.0000000), wk =   0.0024793
        k(  260) = (   0.1818182   0.5773503   0.0316040), wk =   0.0049587
        k(  261) = (   0.1818182   0.5773503   0.0632080), wk =   0.0049587
        k(  262) = (   0.1818182   0.5773503   0.0948121), wk =   0.0049587
        k(  263) = (   0.1818182   0.5773503   0.1264161), wk =   0.0049587
        k(  264) = (   0.1818182   0.5773503  -0.1580201), wk =   0.0024793
        k(  265) = (   0.2272727   0.3936479   0.0000000), wk =   0.0024793
        k(  266) = (   0.2272727   0.3936479   0.0316040), wk =   0.0049587
        k(  267) = (   0.2272727   0.3936479   0.0632080), wk =   0.0049587
        k(  268) = (   0.2272727   0.3936479   0.0948121), wk =   0.0049587
        k(  269) = (   0.2272727   0.3936479   0.1264161), wk =   0.0049587
        k(  270) = (   0.2272727   0.3936479  -0.1580201), wk =   0.0024793
        k(  271) = (   0.2272727   0.4461343   0.0000000), wk =   0.0049587
        k(  272) = (   0.2272727   0.4461343   0.0316040), wk =   0.0099174
        k(  273) = (   0.2272727   0.4461343   0.0632080), wk =   0.0099174
        k(  274) = (   0.2272727   0.4461343   0.0948121), wk =   0.0099174
        k(  275) = (   0.2272727   0.4461343   0.1264161), wk =   0.0099174
        k(  276) = (   0.2272727   0.4461343  -0.1580201), wk =   0.0049587
        k(  277) = (   0.2272727   0.4986207   0.0000000), wk =   0.0049587
        k(  278) = (   0.2272727   0.4986207   0.0316040), wk =   0.0099174
        k(  279) = (   0.2272727   0.4986207   0.0632080), wk =   0.0099174
        k(  280) = (   0.2272727   0.4986207   0.0948121), wk =   0.0099174
        k(  281) = (   0.2272727   0.4986207   0.1264161), wk =   0.0099174
        k(  282) = (   0.2272727   0.4986207  -0.1580201), wk =   0.0049587
        k(  283) = (   0.2272727   0.5511071   0.0000000), wk =   0.0049587
        k(  284) = (   0.2272727   0.5511071   0.0316040), wk =   0.0099174
        k(  285) = (   0.2272727   0.5511071   0.0632080), wk =   0.0099174
        k(  286) = (   0.2272727   0.5511071   0.0948121), wk =   0.0099174
        k(  287) = (   0.2272727   0.5511071   0.1264161), wk =   0.0099174
        k(  288) = (   0.2272727   0.5511071  -0.1580201), wk =   0.0049587
        k(  289) = (   0.2727273   0.4723775   0.0000000), wk =   0.0024793
        k(  290) = (   0.2727273   0.4723775   0.0316040), wk =   0.0049587
        k(  291) = (   0.2727273   0.4723775   0.0632080), wk =   0.0049587
        k(  292) = (   0.2727273   0.4723775   0.0948121), wk =   0.0049587
        k(  293) = (   0.2727273   0.4723775   0.1264161), wk =   0.0049587
        k(  294) = (   0.2727273   0.4723775  -0.1580201), wk =   0.0024793
        k(  295) = (   0.2727273   0.5248639   0.0000000), wk =   0.0049587
        k(  296) = (   0.2727273   0.5248639   0.0316040), wk =   0.0099174
        k(  297) = (   0.2727273   0.5248639   0.0632080), wk =   0.0099174
        k(  298) = (   0.2727273   0.5248639   0.0948121), wk =   0.0099174
        k(  299) = (   0.2727273   0.5248639   0.1264161), wk =   0.0099174
        k(  300) = (   0.2727273   0.5248639  -0.1580201), wk =   0.0049587
        k(  301) = (   0.2727273   0.5773503   0.0000000), wk =   0.0024793
        k(  302) = (   0.2727273   0.5773503   0.0316040), wk =   0.0049587
        k(  303) = (   0.2727273   0.5773503   0.0632080), wk =   0.0049587
        k(  304) = (   0.2727273   0.5773503   0.0948121), wk =   0.0049587
        k(  305) = (   0.2727273   0.5773503   0.1264161), wk =   0.0049587
        k(  306) = (   0.2727273   0.5773503  -0.1580201), wk =   0.0024793
        k(  307) = (   0.3181818   0.5511071   0.0000000), wk =   0.0024793
        k(  308) = (   0.3181818   0.5511071   0.0316040), wk =   0.0049587
        k(  309) = (   0.3181818   0.5511071   0.0632080), wk =   0.0049587
        k(  310) = (   0.3181818   0.5511071   0.0948121), wk =   0.0049587
        k(  311) = (   0.3181818   0.5511071   0.1264161), wk =   0.0049587
        k(  312) = (   0.3181818   0.5511071  -0.1580201), wk =   0.0024793

                       cryst. coord.
        k(    1) = (   0.0000000   0.0000000   0.0000000), wk =   0.0004132
        k(    2) = (   0.0000000   0.0000000   0.1000000), wk =   0.0008264
        k(    3) = (   0.0000000   0.0000000   0.2000000), wk =   0.0008264
        k(    4) = (   0.0000000   0.0000000   0.3000000), wk =   0.0008264
        k(    5) = (   0.0000000   0.0000000   0.4000000), wk =   0.0008264
        k(    6) = (   0.0000000   0.0000000  -0.5000000), wk =   0.0004132
        k(    7) = (   0.0000000   0.0454545   0.0000000), wk =   0.0024793
        k(    8) = (   0.0000000   0.0454545   0.1000000), wk =   0.0049587
        k(    9) = (   0.0000000   0.0454545   0.2000000), wk =   0.0049587
        k(   10) = (   0.0000000   0.0454545   0.3000000), wk =   0.0049587
        k(   11) = (   0.0000000   0.0454545   0.4000000), wk =   0.0049587
        k(   12) = (   0.0000000   0.0454545  -0.5000000), wk =   0.0024793
        k(   13) = (   0.0000000   0.0909091   0.0000000), wk =   0.0024793
        k(   14) = (   0.0000000   0.0909091   0.1000000), wk =   0.0049587
        k(   15) = (   0.0000000   0.0909091   0.2000000), wk =   0.0049587
        k(   16) = (   0.0000000   0.0909091   0.3000000), wk =   0.0049587
        k(   17) = (   0.0000000   0.0909091   0.4000000), wk =   0.0049587
        k(   18) = (   0.0000000   0.0909091  -0.5000000), wk =   0.0024793
        k(   19) = (   0.0000000   0.1363636   0.0000000), wk =   0.0024793
        k(   20) = (   0.0000000   0.1363636   0.1000000), wk =   0.0049587
        k(   21) = (   0.0000000   0.1363636   0.2000000), wk =   0.0049587
        k(   22) = (   0.0000000   0.1363636   0.3000000), wk =   0.0049587
        k(   23) = (   0.0000000   0.1363636   0.4000000), wk =   0.0049587
        k(   24) = (   0.0000000   0.1363636  -0.5000000), wk =   0.0024793
        k(   25) = (   0.0000000   0.1818182   0.0000000), wk =   0.0024793
        k(   26) = (   0.0000000   0.1818182   0.1000000), wk =   0.0049587
        k(   27) = (   0.0000000   0.1818182   0.2000000), wk =   0.0049587
        k(   28) = (   0.0000000   0.1818182   0.3000000), wk =   0.0049587
        k(   29) = (   0.0000000   0.1818182   0.4000000), wk =   0.0049587
        k(   30) = (   0.0000000   0.1818182  -0.5000000), wk =   0.0024793
        k(   31) = (   0.0000000   0.2272727   0.0000000), wk =   0.0024793
        k(   32) = (   0.0000000   0.2272727   0.1000000), wk =   0.0049587
        k(   33) = (   0.0000000   0.2272727   0.2000000), wk =   0.0049587
        k(   34) = (   0.0000000   0.2272727   0.3000000), wk =   0.0049587
        k(   35) = (   0.0000000   0.2272727   0.4000000), wk =   0.0049587
        k(   36) = (   0.0000000   0.2272727  -0.5000000), wk =   0.0024793
        k(   37) = (   0.0000000   0.2727273   0.0000000), wk =   0.0024793
        k(   38) = (   0.0000000   0.2727273   0.1000000), wk =   0.0049587
        k(   39) = (   0.0000000   0.2727273   0.2000000), wk =   0.0049587
        k(   40) = (   0.0000000   0.2727273   0.3000000), wk =   0.0049587
        k(   41) = (   0.0000000   0.2727273   0.4000000), wk =   0.0049587
        k(   42) = (   0.0000000   0.2727273  -0.5000000), wk =   0.0024793
        k(   43) = (   0.0000000   0.3181818   0.0000000), wk =   0.0024793
        k(   44) = (   0.0000000   0.3181818   0.1000000), wk =   0.0049587
        k(   45) = (   0.0000000   0.3181818   0.2000000), wk =   0.0049587
        k(   46) = (   0.0000000   0.3181818   0.3000000), wk =   0.0049587
        k(   47) = (   0.0000000   0.3181818   0.4000000), wk =   0.0049587
        k(   48) = (   0.0000000   0.3181818  -0.5000000), wk =   0.0024793
        k(   49) = (   0.0000000   0.3636364   0.0000000), wk =   0.0024793
        k(   50) = (   0.0000000   0.3636364   0.1000000), wk =   0.0049587
        k(   51) = (   0.0000000   0.3636364   0.2000000), wk =   0.0049587
        k(   52) = (   0.0000000   0.3636364   0.3000000), wk =   0.0049587
        k(   53) = (   0.0000000   0.3636364   0.4000000), wk =   0.0049587
        k(   54) = (   0.0000000   0.3636364  -0.5000000), wk =   0.0024793
        k(   55) = (   0.0000000   0.4090909   0.0000000), wk =   0.0024793
        k(   56) = (   0.0000000   0.4090909   0.1000000), wk =   0.0049587
        k(   57) = (   0.0000000   0.4090909   0.2000000), wk =   0.0049587
        k(   58) = (   0.0000000   0.4090909   0.3000000), wk =   0.0049587
        k(   59) = (   0.0000000   0.4090909   0.4000000), wk =   0.0049587
        k(   60) = (   0.0000000   0.4090909  -0.5000000), wk =   0.0024793
        k(   61) = (   0.0000000   0.4545455   0.0000000), wk =   0.0024793
        k(   62) = (   0.0000000   0.4545455   0.1000000), wk =   0.0049587
        k(   63) = (   0.0000000   0.4545455   0.2000000), wk =   0.0049587
        k(   64) = (   0.0000000   0.4545455   0.3000000), wk =   0.0049587
        k(   65) = (   0.0000000   0.4545455   0.4000000), wk =   0.0049587
        k(   66) = (   0.0000000   0.4545455  -0.5000000), wk =   0.0024793
        k(   67) = (   0.0000000  -0.5000000   0.0000000), wk =   0.0012397
        k(   68) = (   0.0000000  -0.5000000   0.1000000), wk =   0.0024793
        k(   69) = (   0.0000000  -0.5000000   0.2000000), wk =   0.0024793
        k(   70) = (   0.0000000  -0.5000000   0.3000000), wk =   0.0024793
        k(   71) = (   0.0000000  -0.5000000   0.4000000), wk =   0.0024793
        k(   72) = (   0.0000000  -0.5000000  -0.5000000), wk =   0.0012397
        k(   73) = (   0.0454545   0.0454545   0.0000000), wk =   0.0024793
        k(   74) = (   0.0454545   0.0454545   0.1000000), wk =   0.0049587
        k(   75) = (   0.0454545   0.0454545   0.2000000), wk =   0.0049587
        k(   76) = (   0.0454545   0.0454545   0.3000000), wk =   0.0049587
        k(   77) = (   0.0454545   0.0454545   0.4000000), wk =   0.0049587
        k(   78) = (   0.0454545   0.0454545  -0.5000000), wk =   0.0024793
        k(   79) = (   0.0454545   0.0909091   0.0000000), wk =   0.0049587
        k(   80) = (   0.0454545   0.0909091   0.1000000), wk =   0.0099174
        k(   81) = (   0.0454545   0.0909091   0.2000000), wk =   0.0099174
        k(   82) = (   0.0454545   0.0909091   0.3000000), wk =   0.0099174
        k(   83) = (   0.0454545   0.0909091   0.4000000), wk =   0.0099174
        k(   84) = (   0.0454545   0.0909091  -0.5000000), wk =   0.0049587
        k(   85) = (   0.0454545   0.1363636   0.0000000), wk =   0.0049587
        k(   86) = (   0.0454545   0.1363636   0.1000000), wk =   0.0099174
        k(   87) = (   0.0454545   0.1363636   0.2000000), wk =   0.0099174
        k(   88) = (   0.0454545   0.1363636   0.3000000), wk =   0.0099174
        k(   89) = (   0.0454545   0.1363636   0.4000000), wk =   0.0099174
        k(   90) = (   0.0454545   0.1363636  -0.5000000), wk =   0.0049587
        k(   91) = (   0.0454545   0.1818182   0.0000000), wk =   0.0049587
        k(   92) = (   0.0454545   0.1818182   0.1000000), wk =   0.0099174
        k(   93) = (   0.0454545   0.1818182   0.2000000), wk =   0.0099174
        k(   94) = (   0.0454545   0.1818182   0.3000000), wk =   0.0099174
        k(   95) = (   0.0454545   0.1818182   0.4000000), wk =   0.0099174
        k(   96) = (   0.0454545   0.1818182  -0.5000000), wk =   0.0049587
        k(   97) = (   0.0454545   0.2272727   0.0000000), wk =   0.0049587
        k(   98) = (   0.0454545   0.2272727   0.1000000), wk =   0.0099174
        k(   99) = (   0.0454545   0.2272727   0.2000000), wk =   0.0099174
        k(  100) = (   0.0454545   0.2272727   0.3000000), wk =   0.0099174
        k(  101) = (   0.0454545   0.2272727   0.4000000), wk =   0.0099174
        k(  102) = (   0.0454545   0.2272727  -0.5000000), wk =   0.0049587
        k(  103) = (   0.0454545   0.2727273   0.0000000), wk =   0.0049587
        k(  104) = (   0.0454545   0.2727273   0.1000000), wk =   0.0099174
        k(  105) = (   0.0454545   0.2727273   0.2000000), wk =   0.0099174
        k(  106) = (   0.0454545   0.2727273   0.3000000), wk =   0.0099174
        k(  107) = (   0.0454545   0.2727273   0.4000000), wk =   0.0099174
        k(  108) = (   0.0454545   0.2727273  -0.5000000), wk =   0.0049587
        k(  109) = (   0.0454545   0.3181818   0.0000000), wk =   0.0049587
        k(  110) = (   0.0454545   0.3181818   0.1000000), wk =   0.0099174
        k(  111) = (   0.0454545   0.3181818   0.2000000), wk =   0.0099174
        k(  112) = (   0.0454545   0.3181818   0.3000000), wk =   0.0099174
        k(  113) = (   0.0454545   0.3181818   0.4000000), wk =   0.0099174
        k(  114) = (   0.0454545   0.3181818  -0.5000000), wk =   0.0049587
        k(  115) = (   0.0454545   0.3636364   0.0000000), wk =   0.0049587
        k(  116) = (   0.0454545   0.3636364   0.1000000), wk =   0.0099174
        k(  117) = (   0.0454545   0.3636364   0.2000000), wk =   0.0099174
        k(  118) = (   0.0454545   0.3636364   0.3000000), wk =   0.0099174
        k(  119) = (   0.0454545   0.3636364   0.4000000), wk =   0.0099174
        k(  120) = (   0.0454545   0.3636364  -0.5000000), wk =   0.0049587
        k(  121) = (   0.0454545   0.4090909   0.0000000), wk =   0.0049587
        k(  122) = (   0.0454545   0.4090909   0.1000000), wk =   0.0099174
        k(  123) = (   0.0454545   0.4090909   0.2000000), wk =   0.0099174
        k(  124) = (   0.0454545   0.4090909   0.3000000), wk =   0.0099174
        k(  125) = (   0.0454545   0.4090909   0.4000000), wk =   0.0099174
        k(  126) = (   0.0454545   0.4090909  -0.5000000), wk =   0.0049587
        k(  127) = (   0.0454545   0.4545455   0.0000000), wk =   0.0049587
        k(  128) = (   0.0454545   0.4545455   0.1000000), wk =   0.0099174
        k(  129) = (   0.0454545   0.4545455   0.2000000), wk =   0.0099174
        k(  130) = (   0.0454545   0.4545455   0.3000000), wk =   0.0099174
        k(  131) = (   0.0454545   0.4545455   0.4000000), wk =   0.0099174
        k(  132) = (   0.0454545   0.4545455  -0.5000000), wk =   0.0049587
        k(  133) = (   0.0909091   0.0909091   0.0000000), wk =   0.0024793
        k(  134) = (   0.0909091   0.0909091   0.1000000), wk =   0.0049587
        k(  135) = (   0.0909091   0.0909091   0.2000000), wk =   0.0049587
        k(  136) = (   0.0909091   0.0909091   0.3000000), wk =   0.0049587
        k(  137) = (   0.0909091   0.0909091   0.4000000), wk =   0.0049587
        k(  138) = (   0.0909091   0.0909091  -0.5000000), wk =   0.0024793
        k(  139) = (   0.0909091   0.1363636   0.0000000), wk =   0.0049587
        k(  140) = (   0.0909091   0.1363636   0.1000000), wk =   0.0099174
        k(  141) = (   0.0909091   0.1363636   0.2000000), wk =   0.0099174
        k(  142) = (   0.0909091   0.1363636   0.3000000), wk =   0.0099174
        k(  143) = (   0.0909091   0.1363636   0.4000000), wk =   0.0099174
        k(  144) = (   0.0909091   0.1363636  -0.5000000), wk =   0.0049587
        k(  145) = (   0.0909091   0.1818182   0.0000000), wk =   0.0049587
        k(  146) = (   0.0909091   0.1818182   0.1000000), wk =   0.0099174
        k(  147) = (   0.0909091   0.1818182   0.2000000), wk =   0.0099174
        k(  148) = (   0.0909091   0.1818182   0.3000000), wk =   0.0099174
        k(  149) = (   0.0909091   0.1818182   0.4000000), wk =   0.0099174
        k(  150) = (   0.0909091   0.1818182  -0.5000000), wk =   0.0049587
        k(  151) = (   0.0909091   0.2272727   0.0000000), wk =   0.0049587
        k(  152) = (   0.0909091   0.2272727   0.1000000), wk =   0.0099174
        k(  153) = (   0.0909091   0.2272727   0.2000000), wk =   0.0099174
        k(  154) = (   0.0909091   0.2272727   0.3000000), wk =   0.0099174
        k(  155) = (   0.0909091   0.2272727   0.4000000), wk =   0.0099174
        k(  156) = (   0.0909091   0.2272727  -0.5000000), wk =   0.0049587
        k(  157) = (   0.0909091   0.2727273   0.0000000), wk =   0.0049587
        k(  158) = (   0.0909091   0.2727273   0.1000000), wk =   0.0099174
        k(  159) = (   0.0909091   0.2727273   0.2000000), wk =   0.0099174
        k(  160) = (   0.0909091   0.2727273   0.3000000), wk =   0.0099174
        k(  161) = (   0.0909091   0.2727273   0.4000000), wk =   0.0099174
        k(  162) = (   0.0909091   0.2727273  -0.5000000), wk =   0.0049587
        k(  163) = (   0.0909091   0.3181818   0.0000000), wk =   0.0049587
        k(  164) = (   0.0909091   0.3181818   0.1000000), wk =   0.0099174
        k(  165) = (   0.0909091   0.3181818   0.2000000), wk =   0.0099174
        k(  166) = (   0.0909091   0.3181818   0.3000000), wk =   0.0099174
        k(  167) = (   0.0909091   0.3181818   0.4000000), wk =   0.0099174
        k(  168) = (   0.0909091   0.3181818  -0.5000000), wk =   0.0049587
        k(  169) = (   0.0909091   0.3636364   0.0000000), wk =   0.0049587
        k(  170) = (   0.0909091   0.3636364   0.1000000), wk =   0.0099174
        k(  171) = (   0.0909091   0.3636364   0.2000000), wk =   0.0099174
        k(  172) = (   0.0909091   0.3636364   0.3000000), wk =   0.0099174
        k(  173) = (   0.0909091   0.3636364   0.4000000), wk =   0.0099174
        k(  174) = (   0.0909091   0.3636364  -0.5000000), wk =   0.0049587
        k(  175) = (   0.0909091   0.4090909   0.0000000), wk =   0.0049587
        k(  176) = (   0.0909091   0.4090909   0.1000000), wk =   0.0099174
        k(  177) = (   0.0909091   0.4090909   0.2000000), wk =   0.0099174
        k(  178) = (   0.0909091   0.4090909   0.3000000), wk =   0.0099174
        k(  179) = (   0.0909091   0.4090909   0.4000000), wk =   0.0099174
        k(  180) = (   0.0909091   0.4090909  -0.5000000), wk =   0.0049587
        k(  181) = (   0.0909091   0.4545455   0.0000000), wk =   0.0024793
        k(  182) = (   0.0909091   0.4545455   0.1000000), wk =   0.0049587
        k(  183) = (   0.0909091   0.4545455   0.2000000), wk =   0.0049587
        k(  184) = (   0.0909091   0.4545455   0.3000000), wk =   0.0049587
        k(  185) = (   0.0909091   0.4545455   0.4000000), wk =   0.0049587
        k(  186) = (   0.0909091   0.4545455  -0.5000000), wk =   0.0024793
        k(  187) = (   0.1363636   0.1363636   0.0000000), wk =   0.0024793
        k(  188) = (   0.1363636   0.1363636   0.1000000), wk =   0.0049587
        k(  189) = (   0.1363636   0.1363636   0.2000000), wk =   0.0049587
        k(  190) = (   0.1363636   0.1363636   0.3000000), wk =   0.0049587
        k(  191) = (   0.1363636   0.1363636   0.4000000), wk =   0.0049587
        k(  192) = (   0.1363636   0.1363636  -0.5000000), wk =   0.0024793
        k(  193) = (   0.1363636   0.1818182   0.0000000), wk =   0.0049587
        k(  194) = (   0.1363636   0.1818182   0.1000000), wk =   0.0099174
        k(  195) = (   0.1363636   0.1818182   0.2000000), wk =   0.0099174
        k(  196) = (   0.1363636   0.1818182   0.3000000), wk =   0.0099174
        k(  197) = (   0.1363636   0.1818182   0.4000000), wk =   0.0099174
        k(  198) = (   0.1363636   0.1818182  -0.5000000), wk =   0.0049587
        k(  199) = (   0.1363636   0.2272727   0.0000000), wk =   0.0049587
        k(  200) = (   0.1363636   0.2272727   0.1000000), wk =   0.0099174
        k(  201) = (   0.1363636   0.2272727   0.2000000), wk =   0.0099174
        k(  202) = (   0.1363636   0.2272727   0.3000000), wk =   0.0099174
        k(  203) = (   0.1363636   0.2272727   0.4000000), wk =   0.0099174
        k(  204) = (   0.1363636   0.2272727  -0.5000000), wk =   0.0049587
        k(  205) = (   0.1363636   0.2727273   0.0000000), wk =   0.0049587
        k(  206) = (   0.1363636   0.2727273   0.1000000), wk =   0.0099174
        k(  207) = (   0.1363636   0.2727273   0.2000000), wk =   0.0099174
        k(  208) = (   0.1363636   0.2727273   0.3000000), wk =   0.0099174
        k(  209) = (   0.1363636   0.2727273   0.4000000), wk =   0.0099174
        k(  210) = (   0.1363636   0.2727273  -0.5000000), wk =   0.0049587
        k(  211) = (   0.1363636   0.3181818   0.0000000), wk =   0.0049587
        k(  212) = (   0.1363636   0.3181818   0.1000000), wk =   0.0099174
        k(  213) = (   0.1363636   0.3181818   0.2000000), wk =   0.0099174
        k(  214) = (   0.1363636   0.3181818   0.3000000), wk =   0.0099174
        k(  215) = (   0.1363636   0.3181818   0.4000000), wk =   0.0099174
        k(  216) = (   0.1363636   0.3181818  -0.5000000), wk =   0.0049587
        k(  217) = (   0.1363636   0.3636364   0.0000000), wk =   0.0049587
        k(  218) = (   0.1363636   0.3636364   0.1000000), wk =   0.0099174
        k(  219) = (   0.1363636   0.3636364   0.2000000), wk =   0.0099174
        k(  220) = (   0.1363636   0.3636364   0.3000000), wk =   0.0099174
        k(  221) = (   0.1363636   0.3636364   0.4000000), wk =   0.0099174
        k(  222) = (   0.1363636   0.3636364  -0.5000000), wk =   0.0049587
        k(  223) = (   0.1363636   0.4090909   0.0000000), wk =   0.0049587
        k(  224) = (   0.1363636   0.4090909   0.1000000), wk =   0.0099174
        k(  225) = (   0.1363636   0.4090909   0.2000000), wk =   0.0099174
        k(  226) = (   0.1363636   0.4090909   0.3000000), wk =   0.0099174
        k(  227) = (   0.1363636   0.4090909   0.4000000), wk =   0.0099174
        k(  228) = (   0.1363636   0.4090909  -0.5000000), wk =   0.0049587
        k(  229) = (   0.1818182   0.1818182   0.0000000), wk =   0.0024793
        k(  230) = (   0.1818182   0.1818182   0.1000000), wk =   0.0049587
        k(  231) = (   0.1818182   0.1818182   0.2000000), wk =   0.0049587
        k(  232) = (   0.1818182   0.1818182   0.3000000), wk =   0.0049587
        k(  233) = (   0.1818182   0.1818182   0.4000000), wk =   0.0049587
        k(  234) = (   0.1818182   0.1818182  -0.5000000), wk =   0.0024793
        k(  235) = (   0.1818182   0.2272727   0.0000000), wk =   0.0049587
        k(  236) = (   0.1818182   0.2272727   0.1000000), wk =   0.0099174
        k(  237) = (   0.1818182   0.2272727   0.2000000), wk =   0.0099174
        k(  238) = (   0.1818182   0.2272727   0.3000000), wk =   0.0099174
        k(  239) = (   0.1818182   0.2272727   0.4000000), wk =   0.0099174
        k(  240) = (   0.1818182   0.2272727  -0.5000000), wk =   0.0049587
        k(  241) = (   0.1818182   0.2727273   0.0000000), wk =   0.0049587
        k(  242) = (   0.1818182   0.2727273   0.1000000), wk =   0.0099174
        k(  243) = (   0.1818182   0.2727273   0.2000000), wk =   0.0099174
        k(  244) = (   0.1818182   0.2727273   0.3000000), wk =   0.0099174
        k(  245) = (   0.1818182   0.2727273   0.4000000), wk =   0.0099174
        k(  246) = (   0.1818182   0.2727273  -0.5000000), wk =   0.0049587
        k(  247) = (   0.1818182   0.3181818   0.0000000), wk =   0.0049587
        k(  248) = (   0.1818182   0.3181818   0.1000000), wk =   0.0099174
        k(  249) = (   0.1818182   0.3181818   0.2000000), wk =   0.0099174
        k(  250) = (   0.1818182   0.3181818   0.3000000), wk =   0.0099174
        k(  251) = (   0.1818182   0.3181818   0.4000000), wk =   0.0099174
        k(  252) = (   0.1818182   0.3181818  -0.5000000), wk =   0.0049587
        k(  253) = (   0.1818182   0.3636364   0.0000000), wk =   0.0049587
        k(  254) = (   0.1818182   0.3636364   0.1000000), wk =   0.0099174
        k(  255) = (   0.1818182   0.3636364   0.2000000), wk =   0.0099174
        k(  256) = (   0.1818182   0.3636364   0.3000000), wk =   0.0099174
        k(  257) = (   0.1818182   0.3636364   0.4000000), wk =   0.0099174
        k(  258) = (   0.1818182   0.3636364  -0.5000000), wk =   0.0049587
        k(  259) = (   0.1818182   0.4090909   0.0000000), wk =   0.0024793
        k(  260) = (   0.1818182   0.4090909   0.1000000), wk =   0.0049587
        k(  261) = (   0.1818182   0.4090909   0.2000000), wk =   0.0049587
        k(  262) = (   0.1818182   0.4090909   0.3000000), wk =   0.0049587
        k(  263) = (   0.1818182   0.4090909   0.4000000), wk =   0.0049587
        k(  264) = (   0.1818182   0.4090909  -0.5000000), wk =   0.0024793
        k(  265) = (   0.2272727   0.2272727   0.0000000), wk =   0.0024793
        k(  266) = (   0.2272727   0.2272727   0.1000000), wk =   0.0049587
        k(  267) = (   0.2272727   0.2272727   0.2000000), wk =   0.0049587
        k(  268) = (   0.2272727   0.2272727   0.3000000), wk =   0.0049587
        k(  269) = (   0.2272727   0.2272727   0.4000000), wk =   0.0049587
        k(  270) = (   0.2272727   0.2272727  -0.5000000), wk =   0.0024793
        k(  271) = (   0.2272727   0.2727273   0.0000000), wk =   0.0049587
        k(  272) = (   0.2272727   0.2727273   0.1000000), wk =   0.0099174
        k(  273) = (   0.2272727   0.2727273   0.2000000), wk =   0.0099174
        k(  274) = (   0.2272727   0.2727273   0.3000000), wk =   0.0099174
        k(  275) = (   0.2272727   0.2727273   0.4000000), wk =   0.0099174
        k(  276) = (   0.2272727   0.2727273  -0.5000000), wk =   0.0049587
        k(  277) = (   0.2272727   0.3181818   0.0000000), wk =   0.0049587
        k(  278) = (   0.2272727   0.3181818   0.1000000), wk =   0.0099174
        k(  279) = (   0.2272727   0.3181818   0.2000000), wk =   0.0099174
        k(  280) = (   0.2272727   0.3181818   0.3000000), wk =   0.0099174
        k(  281) = (   0.2272727   0.3181818   0.4000000), wk =   0.0099174
        k(  282) = (   0.2272727   0.3181818  -0.5000000), wk =   0.0049587
        k(  283) = (   0.2272727   0.3636364   0.0000000), wk =   0.0049587
        k(  284) = (   0.2272727   0.3636364   0.1000000), wk =   0.0099174
        k(  285) = (   0.2272727   0.3636364   0.2000000), wk =   0.0099174
        k(  286) = (   0.2272727   0.3636364   0.3000000), wk =   0.0099174
        k(  287) = (   0.2272727   0.3636364   0.4000000), wk =   0.0099174
        k(  288) = (   0.2272727   0.3636364  -0.5000000), wk =   0.0049587
        k(  289) = (   0.2727273   0.2727273   0.0000000), wk =   0.0024793
        k(  290) = (   0.2727273   0.2727273   0.1000000), wk =   0.0049587
        k(  291) = (   0.2727273   0.2727273   0.2000000), wk =   0.0049587
        k(  292) = (   0.2727273   0.2727273   0.3000000), wk =   0.0049587
        k(  293) = (   0.2727273   0.2727273   0.4000000), wk =   0.0049587
        k(  294) = (   0.2727273   0.2727273  -0.5000000), wk =   0.0024793
        k(  295) = (   0.2727273   0.3181818   0.0000000), wk =   0.0049587
        k(  296) = (   0.2727273   0.3181818   0.1000000), wk =   0.0099174
        k(  297) = (   0.2727273   0.3181818   0.2000000), wk =   0.0099174
        k(  298) = (   0.2727273   0.3181818   0.3000000), wk =   0.0099174
        k(  299) = (   0.2727273   0.3181818   0.4000000), wk =   0.0099174
        k(  300) = (   0.2727273   0.3181818  -0.5000000), wk =   0.0049587
        k(  301) = (   0.2727273   0.3636364   0.0000000), wk =   0.0024793
        k(  302) = (   0.2727273   0.3636364   0.1000000), wk =   0.0049587
        k(  303) = (   0.2727273   0.3636364   0.2000000), wk =   0.0049587
        k(  304) = (   0.2727273   0.3636364   0.3000000), wk =   0.0049587
        k(  305) = (   0.2727273   0.3636364   0.4000000), wk =   0.0049587
        k(  306) = (   0.2727273   0.3636364  -0.5000000), wk =   0.0024793
        k(  307) = (   0.3181818   0.3181818   0.0000000), wk =   0.0024793
        k(  308) = (   0.3181818   0.3181818   0.1000000), wk =   0.0049587
        k(  309) = (   0.3181818   0.3181818   0.2000000), wk =   0.0049587
        k(  310) = (   0.3181818   0.3181818   0.3000000), wk =   0.0049587
        k(  311) = (   0.3181818   0.3181818   0.4000000), wk =   0.0049587
        k(  312) = (   0.3181818   0.3181818  -0.5000000), wk =   0.0024793

     Dense  grid:    44715 G-vectors     FFT dimensions: (  32,  32, 100)

     Smooth grid:    13291 G-vectors     FFT dimensions: (  24,  24,  72)

     Dynamical RAM for                 wfc:       0.40 MB

     Dynamical RAM for     wfc (w. buffer):       0.40 MB

     Dynamical RAM for           str. fact:       0.68 MB

     Dynamical RAM for           local pot:       0.00 MB

     Dynamical RAM for          nlocal pot:       0.81 MB

     Dynamical RAM for                qrad:       0.36 MB

     Dynamical RAM for          rho,v,vnew:       4.39 MB

     Dynamical RAM for           G-vectors:       2.66 MB

     Dynamical RAM for          h,s,v(r/c):       0.19 MB

     Dynamical RAM for          <psi|beta>:       0.01 MB

     Dynamical RAM for                 psi:       1.62 MB

     Dynamical RAM for                hpsi:       1.62 MB

     Dynamical RAM for                spsi:       1.62 MB

     Dynamical RAM for      wfcinit/wfcrot:       0.81 MB

     Dynamical RAM for           addusdens:      32.07 MB

     Estimated static dynamical RAM per process >      14.58 MB

     Estimated max dynamical RAM per process >      46.65 MB

     Check: negative core charge=   -0.000001

     The potential is recalculated from file :
     ./\pwscf.save\charge-density

     Starting wfcs are   16 randomized atomic wfcs

     Band Structure Calculation
     Davidson diagonalization with overlap

     Computing kpt #:     1
     total cpu time spent up to now is        1.7 secs

     Computing kpt #:     2
     total cpu time spent up to now is        2.0 secs

     Computing kpt #:     3
     total cpu time spent up to now is        2.2 secs

     Computing kpt #:     4
     total cpu time spent up to now is        2.4 secs

     Computing kpt #:     5
     total cpu time spent up to now is        2.6 secs

     Computing kpt #:     6
     total cpu time spent up to now is        2.8 secs

     Computing kpt #:     7
     total cpu time spent up to now is        3.0 secs

     Computing kpt #:     8
     total cpu time spent up to now is        3.3 secs

     Computing kpt #:     9
     total cpu time spent up to now is        3.5 secs

     Computing kpt #:    10
     total cpu time spent up to now is        3.7 secs

     Computing kpt #:    11
     total cpu time spent up to now is        3.9 secs

     Computing kpt #:    12
     total cpu time spent up to now is        4.1 secs

     Computing kpt #:    13
     total cpu time spent up to now is        4.3 secs

     Computing kpt #:    14
     total cpu time spent up to now is        4.6 secs

     Computing kpt #:    15
     total cpu time spent up to now is        4.8 secs

     Computing kpt #:    16
     total cpu time spent up to now is        5.0 secs

     Computing kpt #:    17
     total cpu time spent up to now is        5.2 secs

     Computing kpt #:    18
     total cpu time spent up to now is        5.4 secs

     Computing kpt #:    19
     total cpu time spent up to now is        5.7 secs

     Computing kpt #:    20
     total cpu time spent up to now is        5.9 secs

     Computing kpt #:    21
     total cpu time spent up to now is        6.1 secs

     Computing kpt #:    22
     total cpu time spent up to now is        6.3 secs

     Computing kpt #:    23
     total cpu time spent up to now is        6.5 secs

     Computing kpt #:    24
     total cpu time spent up to now is        6.8 secs

     Computing kpt #:    25
     total cpu time spent up to now is        7.0 secs

     Computing kpt #:    26
     total cpu time spent up to now is        7.2 secs

     Computing kpt #:    27
     total cpu time spent up to now is        7.4 secs

     Computing kpt #:    28
     total cpu time spent up to now is        7.6 secs

     Computing kpt #:    29
     total cpu time spent up to now is        7.9 secs

     Computing kpt #:    30
     total cpu time spent up to now is        8.1 secs

     Computing kpt #:    31
     total cpu time spent up to now is        8.4 secs

     Computing kpt #:    32
     total cpu time spent up to now is        8.6 secs

     Computing kpt #:    33
     total cpu time spent up to now is        8.9 secs

     Computing kpt #:    34
     total cpu time spent up to now is        9.2 secs

     Computing kpt #:    35
     total cpu time spent up to now is        9.4 secs

     Computing kpt #:    36
     total cpu time spent up to now is        9.7 secs

     Computing kpt #:    37
     total cpu time spent up to now is       10.0 secs

     Computing kpt #:    38
     total cpu time spent up to now is       10.2 secs

     Computing kpt #:    39
     total cpu time spent up to now is       10.5 secs

     Computing kpt #:    40
     total cpu time spent up to now is       10.8 secs

     Computing kpt #:    41
     total cpu time spent up to now is       11.1 secs

     Computing kpt #:    42
     total cpu time spent up to now is       11.3 secs

     Computing kpt #:    43
     total cpu time spent up to now is       11.7 secs

     Computing kpt #:    44
     total cpu time spent up to now is       12.0 secs

     Computing kpt #:    45
     total cpu time spent up to now is       12.4 secs

     Computing kpt #:    46
     total cpu time spent up to now is       12.7 secs

     Computing kpt #:    47
     total cpu time spent up to now is       13.1 secs

     Computing kpt #:    48
     total cpu time spent up to now is       13.3 secs

     Computing kpt #:    49
     total cpu time spent up to now is       13.7 secs

     Computing kpt #:    50
     total cpu time spent up to now is       14.0 secs

     Computing kpt #:    51
     total cpu time spent up to now is       14.3 secs

     Computing kpt #:    52
     total cpu time spent up to now is       14.6 secs

     Computing kpt #:    53
     total cpu time spent up to now is       15.0 secs

     Computing kpt #:    54
     total cpu time spent up to now is       15.3 secs

     Computing kpt #:    55
     total cpu time spent up to now is       15.7 secs

     Computing kpt #:    56
     total cpu time spent up to now is       16.0 secs

     Computing kpt #:    57
     total cpu time spent up to now is       16.3 secs

     Computing kpt #:    58
     total cpu time spent up to now is       16.6 secs

     Computing kpt #:    59
     total cpu time spent up to now is       16.9 secs

     Computing kpt #:    60
     total cpu time spent up to now is       17.2 secs

     Computing kpt #:    61
     total cpu time spent up to now is       17.5 secs

     Computing kpt #:    62
     total cpu time spent up to now is       17.8 secs

     Computing kpt #:    63
     total cpu time spent up to now is       18.1 secs

     Computing kpt #:    64
     total cpu time spent up to now is       18.4 secs

     Computing kpt #:    65
     total cpu time spent up to now is       18.7 secs

     Computing kpt #:    66
     total cpu time spent up to now is       19.1 secs

     Computing kpt #:    67
     total cpu time spent up to now is       19.3 secs

     Computing kpt #:    68
     total cpu time spent up to now is       19.7 secs

     Computing kpt #:    69
     total cpu time spent up to now is       20.0 secs

     Computing kpt #:    70
     total cpu time spent up to now is       20.2 secs

     Computing kpt #:    71
     total cpu time spent up to now is       20.6 secs

     Computing kpt #:    72
     total cpu time spent up to now is       20.8 secs

     Computing kpt #:    73
     total cpu time spent up to now is       21.1 secs

     Computing kpt #:    74
     total cpu time spent up to now is       21.4 secs

     Computing kpt #:    75
     total cpu time spent up to now is       21.6 secs

     Computing kpt #:    76
     total cpu time spent up to now is       21.9 secs

     Computing kpt #:    77
     total cpu time spent up to now is       22.1 secs

     Computing kpt #:    78
     total cpu time spent up to now is       22.4 secs

     Computing kpt #:    79
     total cpu time spent up to now is       22.6 secs

     Computing kpt #:    80
     total cpu time spent up to now is       22.9 secs

     Computing kpt #:    81
     total cpu time spent up to now is       23.1 secs

     Computing kpt #:    82
     total cpu time spent up to now is       23.4 secs

     Computing kpt #:    83
     total cpu time spent up to now is       23.6 secs

     Computing kpt #:    84
     total cpu time spent up to now is       23.9 secs

     Computing kpt #:    85
     total cpu time spent up to now is       24.2 secs

     Computing kpt #:    86
     total cpu time spent up to now is       24.4 secs

     Computing kpt #:    87
     total cpu time spent up to now is       24.7 secs

     Computing kpt #:    88
     total cpu time spent up to now is       24.9 secs

     Computing kpt #:    89
     total cpu time spent up to now is       25.2 secs

     Computing kpt #:    90
     total cpu time spent up to now is       25.4 secs

     Computing kpt #:    91
     total cpu time spent up to now is       25.7 secs

     Computing kpt #:    92
     total cpu time spent up to now is       26.0 secs

     Computing kpt #:    93
     total cpu time spent up to now is       26.3 secs

     Computing kpt #:    94
     total cpu time spent up to now is       26.5 secs

     Computing kpt #:    95
     total cpu time spent up to now is       26.8 secs

     Computing kpt #:    96
     total cpu time spent up to now is       27.1 secs

     Computing kpt #:    97
     total cpu time spent up to now is       27.3 secs

     Computing kpt #:    98
     total cpu time spent up to now is       27.6 secs

     Computing kpt #:    99
     total cpu time spent up to now is       27.9 secs

     Computing kpt #:   100
     total cpu time spent up to now is       28.2 secs

     Computing kpt #:   101
     total cpu time spent up to now is       28.5 secs

     Computing kpt #:   102
     total cpu time spent up to now is       28.7 secs

     Computing kpt #:   103
     total cpu time spent up to now is       29.0 secs

     Computing kpt #:   104
     total cpu time spent up to now is       29.3 secs

     Computing kpt #:   105
     total cpu time spent up to now is       29.6 secs

     Computing kpt #:   106
     total cpu time spent up to now is       29.9 secs

     Computing kpt #:   107
     total cpu time spent up to now is       30.2 secs

     Computing kpt #:   108
     total cpu time spent up to now is       30.5 secs

     Computing kpt #:   109
     total cpu time spent up to now is       30.9 secs

     Computing kpt #:   110
     total cpu time spent up to now is       31.2 secs

     Computing kpt #:   111
     total cpu time spent up to now is       31.5 secs

     Computing kpt #:   112
     total cpu time spent up to now is       31.8 secs

     Computing kpt #:   113
     total cpu time spent up to now is       32.2 secs

     Computing kpt #:   114
     total cpu time spent up to now is       32.5 secs

     Computing kpt #:   115
     total cpu time spent up to now is       32.8 secs

     Computing kpt #:   116
     total cpu time spent up to now is       33.1 secs

     Computing kpt #:   117
     total cpu time spent up to now is       33.4 secs

     Computing kpt #:   118
     total cpu time spent up to now is       33.8 secs

     Computing kpt #:   119
     total cpu time spent up to now is       34.1 secs

     Computing kpt #:   120
     total cpu time spent up to now is       34.4 secs

     Computing kpt #:   121
     total cpu time spent up to now is       34.7 secs

     Computing kpt #:   122
     total cpu time spent up to now is       35.0 secs

     Computing kpt #:   123
     total cpu time spent up to now is       35.4 secs

     Computing kpt #:   124
     total cpu time spent up to now is       35.7 secs

     Computing kpt #:   125
     total cpu time spent up to now is       36.0 secs

     Computing kpt #:   126
     total cpu time spent up to now is       36.3 secs

     Computing kpt #:   127
     total cpu time spent up to now is       36.6 secs

     Computing kpt #:   128
     total cpu time spent up to now is       36.9 secs

     Computing kpt #:   129
     total cpu time spent up to now is       37.2 secs

     Computing kpt #:   130
     total cpu time spent up to now is       37.5 secs

     Computing kpt #:   131
     total cpu time spent up to now is       37.8 secs

     Computing kpt #:   132
     total cpu time spent up to now is       38.1 secs

     Computing kpt #:   133
     total cpu time spent up to now is       38.4 secs

     Computing kpt #:   134
     total cpu time spent up to now is       38.6 secs

     Computing kpt #:   135
     total cpu time spent up to now is       38.9 secs

     Computing kpt #:   136
     total cpu time spent up to now is       39.1 secs

     Computing kpt #:   137
     total cpu time spent up to now is       39.4 secs

     Computing kpt #:   138
     total cpu time spent up to now is       39.6 secs

     Computing kpt #:   139
     total cpu time spent up to now is       39.9 secs

     Computing kpt #:   140
     total cpu time spent up to now is       40.2 secs

     Computing kpt #:   141
     total cpu time spent up to now is       40.4 secs

     Computing kpt #:   142
     total cpu time spent up to now is       40.7 secs

     Computing kpt #:   143
     total cpu time spent up to now is       41.0 secs

     Computing kpt #:   144
     total cpu time spent up to now is       41.2 secs

     Computing kpt #:   145
     total cpu time spent up to now is       41.5 secs

     Computing kpt #:   146
     total cpu time spent up to now is       41.8 secs

     Computing kpt #:   147
     total cpu time spent up to now is       42.0 secs

     Computing kpt #:   148
     total cpu time spent up to now is       42.3 secs

     Computing kpt #:   149
     total cpu time spent up to now is       42.6 secs

     Computing kpt #:   150
     total cpu time spent up to now is       42.8 secs

     Computing kpt #:   151
     total cpu time spent up to now is       43.1 secs

     Computing kpt #:   152
     total cpu time spent up to now is       43.4 secs

     Computing kpt #:   153
     total cpu time spent up to now is       43.7 secs

     Computing kpt #:   154
     total cpu time spent up to now is       44.0 secs

     Computing kpt #:   155
     total cpu time spent up to now is       44.3 secs

     Computing kpt #:   156
     total cpu time spent up to now is       44.6 secs

     Computing kpt #:   157
     total cpu time spent up to now is       44.9 secs

     Computing kpt #:   158
     total cpu time spent up to now is       45.1 secs

     Computing kpt #:   159
     total cpu time spent up to now is       45.4 secs

     Computing kpt #:   160
     total cpu time spent up to now is       45.7 secs

     Computing kpt #:   161
     total cpu time spent up to now is       46.0 secs

     Computing kpt #:   162
     total cpu time spent up to now is       46.3 secs

     Computing kpt #:   163
[...]
     1.0000   1.0000   1.0000   1.0000   1.0000   1.0000   1.0000   1.0000
     0.0000   0.0000   0.0000   0.0000   0.0000   0.0000   0.0000   0.0000

          k = 0.2273 0.3936 0.1264 (  1653 PWs)   bands (ev):

   -10.5229 -10.5035  -4.4158  -4.4107  -2.8826  -2.8787   1.8264   2.0277
     9.1369   9.2015  14.2924  15.0909  17.0351  17.0859  17.7079  17.7833

     occupation numbers 
     1.0000   1.0000   1.0000   1.0000   1.0000   1.0000   1.0000   1.0000
     0.0000   0.0000   0.0000   0.0000   0.0000   0.0000   0.0000   0.0000

          k = 0.2273 0.3936-0.1580 (  1646 PWs)   bands (ev):

   -10.5132 -10.5132  -4.4133  -4.4133  -2.8807  -2.8807   1.9256   1.9256
     9.1692   9.1692  14.6803  14.6803  17.0651  17.0651  17.7394  17.7394

     occupation numbers 
     1.0000   1.0000   1.0000   1.0000   1.0000   1.0000   1.0000   1.0000
     0.0000   0.0000   0.0000   0.0000   0.0000   0.0000   0.0000   0.0000

          k = 0.2273 0.4461 0.0000 (  1651 PWs)   bands (ev):

    -9.8186  -9.7603  -5.2171  -5.1933  -3.4420  -3.4244   2.4162   3.0097
     8.1123   8.3432  14.4394  16.3914  16.9805  17.3705  17.9953  18.1210

     occupation numbers 
     1.0000   1.0000   1.0000   1.0000   1.0000   1.0000   1.0000   1.0000
     0.0000   0.0000   0.0000   0.0000   0.0000   0.0000   0.0000   0.0000

          k = 0.2273 0.4461 0.0316 (  1649 PWs)   bands (ev):

    -9.8172  -9.7618  -5.2165  -5.1939  -3.4416  -3.4249   2.4297   2.9940
     8.1178   8.3374  14.4843  16.3244  17.0018  17.3623  17.9702  18.2031

     occupation numbers 
     1.0000   1.0000   1.0000   1.0000   1.0000   1.0000   1.0000   1.0000
     0.0000   0.0000   0.0000   0.0000   0.0000   0.0000   0.0000   0.0000

          k = 0.2273 0.4461 0.0632 (  1651 PWs)   bands (ev):

    -9.8131  -9.7660  -5.2148  -5.1956  -3.4404  -3.4262   2.4690   2.9487
     8.1339   8.3206  14.6145  16.1517  17.0473  17.3381  17.9792  18.3497

     occupation numbers 
     1.0000   1.0000   1.0000   1.0000   1.0000   1.0000   1.0000   1.0000
     0.0000   0.0000   0.0000   0.0000   0.0000   0.0000   0.0000   0.0000

          k = 0.2273 0.4461 0.0948 (  1652 PWs)   bands (ev):

    -9.8067  -9.7725  -5.2121  -5.1982  -3.4385  -3.4282   2.5311   2.8793
     8.1590   8.2947  14.8166  15.9152  17.0981  17.3010  18.0511  18.4699

     occupation numbers 
     1.0000   1.0000   1.0000   1.0000   1.0000   1.0000   1.0000   1.0000
     0.0000   0.0000   0.0000   0.0000   0.0000   0.0000   0.0000   0.0000

          k = 0.2273 0.4461 0.1264 (  1649 PWs)   bands (ev):

    -9.7987  -9.7807  -5.2088  -5.2015  -3.4361  -3.4306   2.6108   2.7937
     8.1908   8.2621  15.0709  15.6423  17.1507  17.2553  18.1756  18.4544

     occupation numbers 
     1.0000   1.0000   1.0000   1.0000   1.0000   1.0000   1.0000   1.0000
     0.0000   0.0000   0.0000   0.0000   0.0000   0.0000   0.0000   0.0000

          k = 0.2273 0.4461-0.1580 (  1648 PWs)   bands (ev):

    -9.7897  -9.7897  -5.2052  -5.2052  -3.4334  -3.4334   2.7011   2.7011
     8.2263   8.2263  15.3539  15.3539  17.2041  17.2041  18.3271  18.3271

     occupation numbers 
     1.0000   1.0000   1.0000   1.0000   1.0000   1.0000   1.0000   1.0000
     0.0000   0.0000   0.0000   0.0000   0.0000   0.0000   0.0000   0.0000

          k = 0.2273 0.4986 0.0000 (  1645 PWs)   bands (ev):

    -9.0329  -8.9802  -6.1104  -6.0783  -3.7685  -3.7457   3.2334   3.7344
     7.2181   7.4601  15.4800  16.5188  16.8700  17.3002  17.3906  18.2566

     occupation numbers 
     1.0000   1.0000   1.0000   1.0000   1.0000   1.0000   1.0000   1.0000
     0.0000   0.0000   0.0000   0.0000   0.0000   0.0000   0.0000   0.0000

          k = 0.2273 0.4986 0.0316 (  1647 PWs)   bands (ev):

    -9.0317  -8.9816  -6.1096  -6.0791  -3.7680  -3.7463   3.2450   3.7215
     7.2234   7.4536  15.5017  16.4599  16.8919  17.2826  17.4390  18.3343

     occupation numbers 
     1.0000   1.0000   1.0000   1.0000   1.0000   1.0000   1.0000   1.0000
     0.0000   0.0000   0.0000   0.0000   0.0000   0.0000   0.0000   0.0000

          k = 0.2273 0.4986 0.0632 (  1649 PWs)   bands (ev):

    -9.0280  -8.9854  -6.1074  -6.0814  -3.7664  -3.7479   3.2791   3.6843
     7.2390   7.4350  15.5616  16.3266  16.9327  17.2567  17.5685  18.5318

     occupation numbers 
     1.0000   1.0000   1.0000   1.0000   1.0000   1.0000   1.0000   1.0000
     0.0000   0.0000   0.0000   0.0000   0.0000   0.0000   0.0000   0.0000

          k = 0.2273 0.4986 0.0948 (  1650 PWs)   bands (ev):

    -9.0222  -8.9912  -6.1038  -6.0849  -3.7639  -3.7505   3.3326   3.6270
     7.2640   7.4065  15.6489  16.1702  16.9840  17.2234  17.7843  18.7592

     occupation numbers 
     1.0000   1.0000   1.0000   1.0000   1.0000   1.0000   1.0000   1.0000
     0.0000   0.0000   0.0000   0.0000   0.0000   0.0000   0.0000   0.0000

          k = 0.2273 0.4986 0.1264 (  1654 PWs)   bands (ev):

    -9.0149  -8.9986  -6.0994  -6.0894  -3.7607  -3.7537   3.4008   3.5556
     7.2963   7.3713  15.7548  16.0165  17.0484  17.1764  18.0876  18.7828

     occupation numbers 
     1.0000   1.0000   1.0000   1.0000   1.0000   1.0000   1.0000   1.0000
     0.0000   0.0000   0.0000   0.0000   0.0000   0.0000   0.0000   0.0000

          k = 0.2273 0.4986-0.1580 (  1656 PWs)   bands (ev):

    -9.0068  -9.0068  -6.0944  -6.0944  -3.7572  -3.7572   3.4776   3.4776
     7.3332   7.3332  15.8771  15.8771  17.1162  17.1162  18.4579  18.4579

     occupation numbers 
     1.0000   1.0000   1.0000   1.0000   1.0000   1.0000   1.0000   1.0000
     0.0000   0.0000   0.0000   0.0000   0.0000   0.0000   0.0000   0.0000

          k = 0.2273 0.5511 0.0000 (  1646 PWs)   bands (ev):

    -8.2667  -8.2263  -6.9415  -6.9114  -3.9173  -3.8922   3.9101   4.2393
     6.6169   6.7581  16.5421  16.6173  16.8152  17.0257  17.2359  17.6331

     occupation numbers 
     1.0000   1.0000   1.0000   1.0000   1.0000   1.0000   1.0000   1.0000
     0.0000   0.0000   0.0000   0.0000   0.0000   0.0000   0.0000   0.0000

          k = 0.2273 0.5511 0.0316 (  1645 PWs)   bands (ev):

    -8.2657  -8.2273  -6.9408  -6.9121  -3.9167  -3.8928   3.9186   4.2320
     6.6185   6.7530  16.4596  16.5521  16.8181  17.1349  17.2456  17.7763

     occupation numbers 
     1.0000   1.0000   1.0000   1.0000   1.0000   1.0000   1.0000   1.0000
     0.0000   0.0000   0.0000   0.0000   0.0000   0.0000   0.0000   0.0000

          k = 0.2273 0.5511 0.0632 (  1647 PWs)   bands (ev):

    -8.2628  -8.2302  -6.9388  -6.9143  -3.9149  -3.8946   3.9433   4.2105
     6.6237   6.7388  16.3155  16.4116  16.8528  17.2295  17.4030  18.1160

     occupation numbers 
     1.0000   1.0000   1.0000   1.0000   1.0000   1.0000   1.0000   1.0000
     0.0000   0.0000   0.0000   0.0000   0.0000   0.0000   0.0000   0.0000

          k = 0.2273 0.5511 0.0948 (  1654 PWs)   bands (ev):

    -8.2584  -8.2346  -6.9355  -6.9177  -3.9122  -3.8974   3.9816   4.1761
     6.6337   6.7178  16.1977  16.2720  16.9236  17.1986  17.7404  18.5182

     occupation numbers 
     1.0000   1.0000   1.0000   1.0000   1.0000   1.0000   1.0000   1.0000
     0.0000   0.0000   0.0000   0.0000   0.0000   0.0000   0.0000   0.0000

          k = 0.2273 0.5511 0.1264 (  1660 PWs)   bands (ev):

    -8.2527  -8.2403  -6.9314  -6.9220  -3.9087  -3.9009   4.0292   4.1316
     6.6491   6.6935  16.1307  16.1711  17.0055  17.1486  18.1344  18.7670

     occupation numbers 
     1.0000   1.0000   1.0000   1.0000   1.0000   1.0000   1.0000   1.0000
     0.0000   0.0000   0.0000   0.0000   0.0000   0.0000   0.0000   0.0000

          k = 0.2273 0.5511-0.1580 (  1660 PWs)   bands (ev):

    -8.2465  -8.2465  -6.9267  -6.9267  -3.9048  -3.9048   4.0810   4.0810
     6.6696   6.6696  16.1221  16.1221  17.0830  17.0830  18.5424  18.5424

     occupation numbers 
     1.0000   1.0000   1.0000   1.0000   1.0000   1.0000   1.0000   1.0000
     0.0000   0.0000   0.0000   0.0000   0.0000   0.0000   0.0000   0.0000

          k = 0.2727 0.4724 0.0000 (  1643 PWs)   bands (ev):

    -9.0724  -9.0191  -5.7532  -5.7334  -4.1463  -4.1319   3.2266   3.7525
     7.2760   7.5086  15.4209  16.3544  17.2241  17.8402  17.8820  18.6979

     occupation numbers 
     1.0000   1.0000   1.0000   1.0000   1.0000   1.0000   1.0000   1.0000
     0.0000   0.0000   0.0000   0.0000   0.0000   0.0000   0.0000   0.0000

          k = 0.2727 0.4724 0.0316 (  1646 PWs)   bands (ev):

    -9.0711  -9.0204  -5.7527  -5.7339  -4.1460  -4.1323   3.2388   3.7388
     7.2816   7.5028  15.4383  16.3087  17.2517  17.8840  17.9308  18.6762

     occupation numbers 
     1.0000   1.0000   1.0000   1.0000   1.0000   1.0000   1.0000   1.0000
     0.0000   0.0000   0.0000   0.0000   0.0000   0.0000   0.0000   0.0000

          k = 0.2727 0.4724 0.0632 (  1646 PWs)   bands (ev):

    -9.0674  -9.0243  -5.7513  -5.7353  -4.1450  -4.1334   3.2741   3.6992
     7.2978   7.4859  15.4868  16.1926  17.3460  17.9938  18.0612  18.6094

     occupation numbers 
     1.0000   1.0000   1.0000   1.0000   1.0000   1.0000   1.0000   1.0000
     0.0000   0.0000   0.0000   0.0000   0.0000   0.0000   0.0000   0.0000

          k = 0.2727 0.4724 0.0948 (  1651 PWs)   bands (ev):

    -9.0615  -9.0302  -5.7491  -5.7375  -4.1435  -4.1350   3.3297   3.6385
     7.3232   7.4597  15.5592  16.0453  17.5227  18.1282  18.2346  18.4913

     occupation numbers 
     1.0000   1.0000   1.0000   1.0000   1.0000   1.0000   1.0000   1.0000
     0.0000   0.0000   0.0000   0.0000   0.0000   0.0000   0.0000   0.0000

          k = 0.2727 0.4724 0.1264 (  1649 PWs)   bands (ev):

    -9.0541  -9.0377  -5.7463  -5.7402  -4.1415  -4.1371   3.4009   3.5631
     7.3553   7.4269  15.6514  15.8970  17.7733  18.2377  18.3280  18.3676

     occupation numbers 
     1.0000   1.0000   1.0000   1.0000   1.0000   1.0000   1.0000   1.0000
     0.0000   0.0000   0.0000   0.0000   0.0000   0.0000   0.0000   0.0000

          k = 0.2727 0.4724-0.1580 (  1656 PWs)   bands (ev):

    -9.0459  -9.0459  -5.7432  -5.7432  -4.1393  -4.1393   3.4812   3.4812
     7.3910   7.3910  15.7639  15.7639  18.0514  18.0514  18.3607  18.3607

     occupation numbers 
     1.0000   1.0000   1.0000   1.0000   1.0000   1.0000   1.0000   1.0000
     0.0000   0.0000   0.0000   0.0000   0.0000   0.0000   0.0000   0.0000

          k = 0.2727 0.5249 0.0000 (  1645 PWs)   bands (ev):

    -8.2913  -8.2450  -6.4352  -6.4094  -4.5582  -4.5393   4.0284   4.4515
     6.4963   6.7238  16.3025  16.4419  16.7113  17.7259  18.0353  18.6365

     occupation numbers 
     1.0000   1.0000   1.0000   1.0000   1.0000   1.0000   1.0000   1.0000
     0.0000   0.0000   0.0000   0.0000   0.0000   0.0000   0.0000   0.0000

          k = 0.2727 0.5249 0.0316 (  1643 PWs)   bands (ev):

    -8.2901  -8.2461  -6.4346  -6.4101  -4.5577  -4.5398   4.0386   4.4410
     6.5013   6.7176  16.2562  16.2998  16.8969  17.7744  18.1159  18.6199

     occupation numbers 
     1.0000   1.0000   1.0000   1.0000   1.0000   1.0000   1.0000   1.0000
     0.0000   0.0000   0.0000   0.0000   0.0000   0.0000   0.0000   0.0000

          k = 0.2727 0.5249 0.0632 (  1645 PWs)   bands (ev):

    -8.2869  -8.2494  -6.4328  -6.4119  -4.5565  -4.5412   4.0682   4.4107
     6.5161   6.6999  16.1126  16.1561  17.2028  17.9113  18.3265  18.5732

     occupation numbers 
     1.0000   1.0000   1.0000   1.0000   1.0000   1.0000   1.0000   1.0000
     0.0000   0.0000   0.0000   0.0000   0.0000   0.0000   0.0000   0.0000

          k = 0.2727 0.5249 0.0948 (  1648 PWs)   bands (ev):

    -8.2818  -8.2546  -6.4299  -6.4148  -4.5545  -4.5434   4.1145   4.3634
     6.5395   6.6728  15.9805  16.0370  17.5370  18.1199  18.4540  18.6518

     occupation numbers 
     1.0000   1.0000   1.0000   1.0000   1.0000   1.0000   1.0000   1.0000
     0.0000   0.0000   0.0000   0.0000   0.0000   0.0000   0.0000   0.0000

          k = 0.2727 0.5249 0.1264 (  1652 PWs)   bands (ev):

    -8.2754  -8.2611  -6.4263  -6.4184  -4.5519  -4.5460   4.1730   4.3040
     6.5697   6.6397  15.9076  15.9435  17.8592  18.3006  18.4260  18.9128

     occupation numbers 
     1.0000   1.0000   1.0000   1.0000   1.0000   1.0000   1.0000   1.0000
     0.0000   0.0000   0.0000   0.0000   0.0000   0.0000   0.0000   0.0000

          k = 0.2727 0.5249-0.1580 (  1646 PWs)   bands (ev):

    -8.2682  -8.2682  -6.4223  -6.4223  -4.5490  -4.5490   4.2384   4.2384
     6.6041   6.6041  15.8967  15.8967  18.1226  18.1226  18.7469  18.7469

     occupation numbers 
     1.0000   1.0000   1.0000   1.0000   1.0000   1.0000   1.0000   1.0000
     0.0000   0.0000   0.0000   0.0000   0.0000   0.0000   0.0000   0.0000

          k = 0.2727 0.5774 0.0000 (  1643 PWs)   bands (ev):

    -7.7308  -7.7055  -6.9564  -6.9501  -4.6842  -4.6622   4.5196   4.7786
     6.1480   6.2336  16.3109  16.5006  17.2894  17.5045  17.7135  18.6111

     occupation numbers 
     1.0000   1.0000   1.0000   1.0000   1.0000   1.0000   1.0000   1.0000
     0.0000   0.0000   0.0000   0.0000   0.0000   0.0000   0.0000   0.0000

          k = 0.2727 0.5774 0.0316 (  1644 PWs)   bands (ev):

    -7.7302  -7.7061  -6.9563  -6.9503  -4.6837  -4.6628   4.5272   4.7739
     6.1483   6.2292  16.2565  16.3989  17.3574  17.6723  17.7735  18.5942

     occupation numbers 
     1.0000   1.0000   1.0000   1.0000   1.0000   1.0000   1.0000   1.0000
     0.0000   0.0000   0.0000   0.0000   0.0000   0.0000   0.0000   0.0000

          k = 0.2727 0.5774 0.0632 (  1643 PWs)   bands (ev):

    -7.7283  -7.7078  -6.9559  -6.9509  -4.6821  -4.6644   4.5488   4.7595
     6.1496   6.2172  16.1371  16.2106  17.5221  17.9454  18.0526  18.5456

     occupation numbers 
     1.0000   1.0000   1.0000   1.0000   1.0000   1.0000   1.0000   1.0000
     0.0000   0.0000   0.0000   0.0000   0.0000   0.0000   0.0000   0.0000

          k = 0.2727 0.5774 0.0948 (  1651 PWs)   bands (ev):

    -7.7254  -7.7106  -6.9554  -6.9517  -4.6798  -4.6669   4.5817   4.7356
     6.1528   6.2008  16.0166  16.0466  17.7296  18.2078  18.4057  18.5765

     occupation numbers 
     1.0000   1.0000   1.0000   1.0000   1.0000   1.0000   1.0000   1.0000
     0.0000   0.0000   0.0000   0.0000   0.0000   0.0000   0.0000   0.0000

          k = 0.2727 0.5774 0.1264 (  1655 PWs)   bands (ev):

    -7.7218  -7.7140  -6.9546  -6.9527  -4.6768  -4.6700   4.6217   4.7029
     6.1591   6.1839  15.9325  15.9417  17.9454  18.3079  18.5380  18.9933

     occupation numbers 
     1.0000   1.0000   1.0000   1.0000   1.0000   1.0000   1.0000   1.0000
     0.0000   0.0000   0.0000   0.0000   0.0000   0.0000   0.0000   0.0000

          k = 0.2727 0.5774-0.1580 (  1656 PWs)   bands (ev):

    -7.7179  -7.7179  -6.9537  -6.9537  -4.6734  -4.6734   4.6637   4.6637
     6.1694   6.1694  15.9043  15.9043  18.1438  18.1438  18.9003  18.9003

     occupation numbers 
     1.0000   1.0000   1.0000   1.0000   1.0000   1.0000   1.0000   1.0000
     0.0000   0.0000   0.0000   0.0000   0.0000   0.0000   0.0000   0.0000

          k = 0.3182 0.5511 0.0000 (  1645 PWs)   bands (ev):

    -7.5636  -7.5274  -6.8608  -6.8381  -5.0454  -5.0367   4.8157   5.1469
     5.7630   6.0154  16.1917  16.3198  17.3190  17.8625  18.0022  19.6628

     occupation numbers 
     1.0000   1.0000   1.0000   1.0000   1.0000   1.0000   1.0000   1.0000
     0.0000   0.0000   0.0000   0.0000   0.0000   0.0000   0.0000   0.0000

          k = 0.3182 0.5511 0.0316 (  1642 PWs)   bands (ev):

    -7.5627  -7.5283  -6.8602  -6.8387  -5.0452  -5.0370   4.8245   5.1399
     5.7680   6.0076  16.1435  16.2396  17.4199  17.9486  18.0934  19.6113

     occupation numbers 
     1.0000   1.0000   1.0000   1.0000   1.0000   1.0000   1.0000   1.0000
     0.0000   0.0000   0.0000   0.0000   0.0000   0.0000   0.0000   0.0000

          k = 0.3182 0.5511 0.0632 (  1648 PWs)   bands (ev):

    -7.5602  -7.5309  -6.8586  -6.8403  -5.0447  -5.0377   4.8501   5.1192
     5.7827   5.9855  16.0315  16.0789  17.6424  18.2009  18.3306  19.4601

     occupation numbers 
     1.0000   1.0000   1.0000   1.0000   1.0000   1.0000   1.0000   1.0000
     0.0000   0.0000   0.0000   0.0000   0.0000   0.0000   0.0000   0.0000

          k = 0.3182 0.5511 0.0948 (  1652 PWs)   bands (ev):

    -7.5562  -7.5349  -6.8562  -6.8429  -5.0439  -5.0387   4.8896   5.0858
     5.8063   5.9527  15.9130  15.9304  17.9146  18.5795  18.6447  19.2225

     occupation numbers 
     1.0000   1.0000   1.0000   1.0000   1.0000   1.0000   1.0000   1.0000
     0.0000   0.0000   0.0000   0.0000   0.0000   0.0000   0.0000   0.0000

          k = 0.3182 0.5511 0.1264 (  1665 PWs)   bands (ev):

    -7.5511  -7.5399  -6.8531  -6.8460  -5.0427  -5.0400   4.9384   5.0418
     5.8376   5.9141  15.8281  15.8326  18.2252  18.8694  19.0236  19.0325

     occupation numbers 
     1.0000   1.0000   1.0000   1.0000   1.0000   1.0000   1.0000   1.0000
     0.0000   0.0000   0.0000   0.0000   0.0000   0.0000   0.0000   0.0000

          k = 0.3182 0.5511-0.1580 (  1658 PWs)   bands (ev):

    -7.5455  -7.5455  -6.8496  -6.8496  -5.0414  -5.0414   4.9910   4.9910
     5.8744   5.8744  15.7983  15.7983  18.5610  18.5610  19.3129  19.3129

     occupation numbers 
     1.0000   1.0000   1.0000   1.0000   1.0000   1.0000   1.0000   1.0000
     0.0000   0.0000   0.0000   0.0000   0.0000   0.0000   0.0000   0.0000

     the Fermi energy is     5.4544 ev

     Writing output data file pwscf.save\

     init_run     :      0.48s CPU      0.55s WALL (       1 calls)
     electrons    :    256.08s CPU     93.20s WALL (       1 calls)

     Called by init_run:
     wfcinit      :      0.00s CPU      0.00s WALL (       1 calls)
     wfcinit:atom :      0.42s CPU      0.15s WALL (     312 calls)
     wfcinit:wfcr :     24.17s CPU      8.62s WALL (     312 calls)
     potinit      :      0.03s CPU      0.02s WALL (       1 calls)
     hinit0       :      0.39s CPU      0.48s WALL (       1 calls)

     Called by electrons:
     c_bands      :    255.84s CPU     93.14s WALL (       1 calls)
     v_of_rho     :      0.03s CPU      0.02s WALL (       1 calls)
     v_h          :      0.00s CPU      0.00s WALL (       1 calls)
     v_xc         :      0.03s CPU      0.02s WALL (       1 calls)
     newd         :      0.05s CPU      0.03s WALL (       1 calls)

     Called by c_bands:
     init_us_2    :      0.44s CPU      0.15s WALL (     312 calls)
     cegterg      :    226.81s CPU     82.86s WALL (     315 calls)

     Called by sum_band:

     Called by *egterg:
     h_psi        :    209.80s CPU     78.45s WALL (    4687 calls)
     s_psi        :      1.55s CPU      0.48s WALL (    4687 calls)
     g_psi        :      4.88s CPU      1.42s WALL (    4060 calls)
     cdiaghg      :      7.80s CPU      2.22s WALL (    4372 calls)
     cegterg:over :      4.69s CPU      1.24s WALL (    4060 calls)
     cegterg:upda :      7.25s CPU      2.40s WALL (    4060 calls)
     cegterg:last :      4.16s CPU      1.34s WALL (     952 calls)

     Called by h_psi:
     h_psi:pot    :    205.27s CPU     76.56s WALL (    4687 calls)
     h_psi:calbec :      2.33s CPU      0.72s WALL (    4687 calls)
     vloc_psi     :    200.62s CPU     75.26s WALL (    4687 calls)
     add_vuspsi   :      2.25s CPU      0.58s WALL (    4687 calls)

     General routines
     calbec       :      2.33s CPU      0.71s WALL (    4687 calls)
     fft          :      0.00s CPU      0.00s WALL (      13 calls)
     ffts         :      0.00s CPU      0.00s WALL (       1 calls)
     fftw         :     30.41s CPU      8.99s WALL (   93616 calls)
     interpolate  :      0.00s CPU      0.00s WALL (       1 calls)
     davcio       :      0.16s CPU      0.09s WALL (     624 calls)

     Parallel routines

     PWSCF        :   4m17.80s CPU   1m35.73s WALL


   This run was terminated on:  23:11:19  19Aug2023            

=------------------------------------------------------------------------------=
   JOB DONE.
=------------------------------------------------------------------------------=
