
     Program BANDS v.6.4.1 starts on 20Aug2023 at  0:28:26 

     This program is part of the open-source Quantum ESPRESSO suite
     for quantum simulation of materials; please cite
         "P. Giannozzi et al., J. Phys.:Condens. Matter 21 395502 (2009);
         "P. Giannozzi et al., J. Phys.:Condens. Matter 29 465901 (2017);
          URL http://www.quantum-espresso.org", 
     in publications or presentations arising from this work. More details at
     http://www.quantum-espresso.org/quote

     Parallel version (MPI & OpenMP), running on      16 processor cores
     Number of MPI processes:                 1
     Threads/MPI process:                    16

     MPI processes distributed on     1 nodes

     Reading data from directory:
     data\graphite.save\

     IMPORTANT: XC functional enforced from input :
     Exchange-correlation      = PBE ( 1  4  3  4 0 0)
     Any further DFT definition will be discarded
     Please, verify this is what you really want


     G-vector sticks info
     --------------------
     sticks:   dense  smooth     PW     G-vecs:    dense   smooth      PW
     Sum         673     301     91                44715    13291    2371


     Check: negative core charge=   -0.000001
     high-symmetry point:  0.0000 0.0000 0.0000   x coordinate   0.0000
     high-symmetry point:  0.0000 0.0000-0.1580   x coordinate   0.1580
     high-symmetry point:  0.0000 0.1925 0.0000   x coordinate   0.4070
     high-symmetry point:  0.0000 0.1925-0.1580   x coordinate   0.5651
     high-symmetry point:  0.0000 0.3849 0.0000   x coordinate   0.8141
     high-symmetry point:  0.0000 0.3849-0.1580   x coordinate   0.9721
     high-symmetry point:  0.0000-0.5774 0.0000   x coordinate   0.9721
     high-symmetry point:  0.0000-0.5774-0.1580   x coordinate   1.1301
     high-symmetry point:  0.1667 0.2887 0.0000   x coordinate   1.1301
     high-symmetry point:  0.1667 0.2887-0.1580   x coordinate   1.2881
     high-symmetry point:  0.1667 0.4811 0.0000   x coordinate   1.5371
     high-symmetry point:  0.1667 0.4811-0.1580   x coordinate   1.6952
     high-symmetry point:  0.3333 0.5774 0.0000   x coordinate   1.9442
     high-symmetry point:  0.3333 0.5774-0.1580   x coordinate   2.1022

     Plottable bands (eV) written to file bands.dat.gnu
     Bands written to file bands.dat

 **************************************************************************

                    xk=(   0.00000,   0.00000,   0.00000  )

     point group D_6h(6/mmm)
     there are 12 classes
     the character table:

       E     2C6   2C3   C2    3C2'  3C2'' i     2S3   2S6   s_h   3s_d  3s_v 
A_1g   1.00  1.00  1.00  1.00  1.00  1.00  1.00  1.00  1.00  1.00  1.00  1.00
A_2g   1.00  1.00  1.00  1.00 -1.00 -1.00  1.00  1.00  1.00  1.00 -1.00 -1.00
B_1g   1.00 -1.00  1.00 -1.00  1.00 -1.00  1.00 -1.00  1.00 -1.00  1.00 -1.00
B_2g   1.00 -1.00  1.00 -1.00 -1.00  1.00  1.00 -1.00  1.00 -1.00 -1.00  1.00
E_1g   2.00  1.00 -1.00 -2.00  0.00  0.00  2.00  1.00 -1.00 -2.00  0.00  0.00
E_2g   2.00 -1.00 -1.00  2.00  0.00  0.00  2.00 -1.00 -1.00  2.00  0.00  0.00
A_1u   1.00  1.00  1.00  1.00  1.00  1.00 -1.00 -1.00 -1.00 -1.00 -1.00 -1.00
A_2u   1.00  1.00  1.00  1.00 -1.00 -1.00 -1.00 -1.00 -1.00 -1.00  1.00  1.00
B_1u   1.00 -1.00  1.00 -1.00  1.00 -1.00 -1.00  1.00 -1.00  1.00 -1.00  1.00
B_2u   1.00 -1.00  1.00 -1.00 -1.00  1.00 -1.00  1.00 -1.00  1.00  1.00 -1.00
E_1u   2.00  1.00 -1.00 -2.00  0.00  0.00 -2.00 -1.00  1.00  2.00  0.00  0.00
E_2u   2.00 -1.00 -1.00  2.00  0.00  0.00 -2.00  1.00  1.00 -2.00  0.00  0.00

     the symmetry operations in each class and the name of the first element:

     E        1
                                                                 
     2C6      5    6
                                                                 
     2C3      7    8
                                                                 
     C2       2
                                                                 
     3C2'     4   12   11
                                                                 
     3C2''    3    9   10
                                                                 
     i       13
                                                                 
     2S3     17   18
                                                                 
     2S6     19   20
                                                                 
     s_h     14
                                                                 
     3s_d    16   24   23
                                                                 
     3s_v    15   21   22
                                                                 

     Band symmetry, D_6h(6/mmm) point group:

     e(  1 -  1) =    -14.11688  eV     1   --> A_1g           
     e(  2 -  2) =    -14.03297  eV     1   --> B_2u           
     e(  3 -  3) =     -2.58796  eV     1   --> B_1g           
     e(  4 -  4) =     -1.73955  eV     1   --> A_2u           
     e(  5 -  6) =      2.37021  eV     2   --> E_1u           
     e(  7 -  8) =      2.37356  eV     2   --> E_2g           
     e(  9 -  9) =      8.82289  eV     1   --> A_1g           
     e( 10 - 10) =     13.02922  eV     1   --> B_1g           
     e( 11 - 12) =     13.75978  eV     2   --> E_2g           
     e( 13 - 14) =     13.77231  eV     2   --> E_1u           
     e( 15 - 15) =     16.81664  eV     1   --> B_1g           
     e( 16 - 16) =     16.87295  eV     1   --> A_2u           

 **************************************************************************

 **************************************************************************

                    xk=(   0.00000,   0.00000,  -0.15802  )

     zone border point and non-symmorphic group 
     symmetry decomposition not available

 **************************************************************************

 **************************************************************************

                    xk=(   0.00000,   0.19245,   0.00000  )

     point group C_2v (mm2) 
     there are  4 classes
     the character table:

       E     C2    s_v   s_v' 
A_1    1.00  1.00  1.00  1.00
A_2    1.00  1.00 -1.00 -1.00
B_1    1.00 -1.00  1.00 -1.00
B_2    1.00 -1.00 -1.00  1.00

     the symmetry operations in each class and the name of the first element:

     E        1
                                                                 
     C2       2
                                                                 
     s_v      3
                                                                 
     s_v'     4
                                                                 

     Band symmetry, C_2v (mm2)  point group:

     e(  1 -  1) =    -13.46210  eV     1   --> A_1  D_1  S_1  
     e(  2 -  2) =    -13.38223  eV     1   --> A_1  D_1  S_1  
     e(  3 -  3) =     -1.79718  eV     1   --> B_2  D_4  S_4  
     e(  4 -  4) =     -0.97641  eV     1   --> B_2  D_4  S_4  
     e(  5 -  5) =      0.08007  eV     1   --> A_1  D_1  S_1  
     e(  6 -  6) =      0.09411  eV     1   --> A_1  D_1  S_1  
     e(  7 -  7) =      1.23737  eV     1   --> B_1  D_3  S_3  
     e(  8 -  8) =      1.24533  eV     1   --> B_1  D_3  S_3  
     e(  9 -  9) =      9.66399  eV     1   --> A_1  D_1  S_1  
     e( 10 - 10) =     13.74371  eV     1   --> A_1  D_1  S_1  
     e( 11 - 11) =     13.74431  eV     1   --> B_2  D_4  S_4  
     e( 12 - 12) =     13.81282  eV     1   --> A_1  D_1  S_1  
     e( 13 - 13) =     14.71886  eV     1   --> B_2  D_4  S_4  
     e( 14 - 14) =     14.86850  eV     1   --> B_2  D_4  S_4  
     e( 15 - 15) =     16.29237  eV     1   --> B_1  D_3  S_3  
     e( 16 - 16) =     16.30422  eV     1   --> B_1  D_3  S_3  

 **************************************************************************

 **************************************************************************

                    xk=(   0.00000,   0.19245,  -0.15802  )

     zone border point and non-symmorphic group 
     symmetry decomposition not available

 **************************************************************************

 **************************************************************************

                    xk=(   0.00000,   0.38490,   0.00000  )

     Band symmetry, C_2v (mm2)  point group:

     e(  1 -  1) =    -11.53079  eV     1   --> A_1  D_1  S_1  
     e(  2 -  2) =    -11.46232  eV     1   --> A_1  D_1  S_1  
     e(  3 -  3) =     -4.22504  eV     1   --> A_1  D_1  S_1  
     e(  4 -  4) =     -4.19245  eV     1   --> A_1  D_1  S_1  
     e(  5 -  5) =     -0.37771  eV     1   --> B_1  D_3  S_3  
     e(  6 -  6) =     -0.36714  eV     1   --> B_1  D_3  S_3  
     e(  7 -  7) =      0.46817  eV     1   --> B_2  D_4  S_4  
     e(  8 -  8) =      1.18074  eV     1   --> B_2  D_4  S_4  
     e(  9 -  9) =     10.18474  eV     1   --> B_2  D_4  S_4  
     e( 10 - 10) =     10.53202  eV     1   --> B_2  D_4  S_4  
     e( 11 - 11) =     12.15654  eV     1   --> A_1  D_1  S_1  
     e( 12 - 12) =     13.11531  eV     1   --> A_1  D_1  S_1  
     e( 13 - 13) =     13.24969  eV     1   --> A_1  D_1  S_1  
     e( 14 - 14) =     15.93621  eV     1   --> B_2  D_4  S_4  
     e( 15 - 15) =     21.65020  eV     1   --> B_1  D_3  S_3  
     e( 16 - 16) =     21.66299  eV     1   --> B_1  D_3  S_3  

 **************************************************************************

 **************************************************************************

                    xk=(   0.00000,   0.38490,  -0.15802  )

     zone border point and non-symmorphic group 
     symmetry decomposition not available

 **************************************************************************

 **************************************************************************

                    xk=(   0.00000,  -0.57735,   0.00000  )

     point group D_2h (mmm) 
     there are  8 classes
     the character table:

       E     C2    C2'   C2''  i     s_v   s_v'  s_v''
A_g    1.00  1.00  1.00  1.00  1.00  1.00  1.00  1.00
B_1g   1.00  1.00 -1.00 -1.00  1.00  1.00 -1.00 -1.00
B_2g   1.00 -1.00  1.00 -1.00  1.00 -1.00  1.00 -1.00
B_3g   1.00 -1.00 -1.00  1.00  1.00 -1.00 -1.00  1.00
A_u    1.00  1.00  1.00  1.00 -1.00 -1.00 -1.00 -1.00
B_1u   1.00  1.00 -1.00 -1.00 -1.00 -1.00  1.00  1.00
B_2u   1.00 -1.00  1.00 -1.00 -1.00  1.00 -1.00  1.00
B_3u   1.00 -1.00 -1.00  1.00 -1.00  1.00  1.00 -1.00

     the symmetry operations in each class and the name of the first element:

     E        1
                                                                 
     C2       2
                                                                 
     C2'      4
                                                                 
     C2''     3
                                                                 
     i        5
                                                                 
     s_v      6
                                                                 
     s_v'     8
                                                                 
     s_v''    7
                                                                 

     Band symmetry, D_2h (mmm)  point group:

     e(  1 -  1) =     -8.85663  eV     1   --> A_g            
     e(  2 -  2) =     -8.82779  eV     1   --> B_3u           
     e(  3 -  3) =     -7.82075  eV     1   --> B_3u           
     e(  4 -  4) =     -7.79815  eV     1   --> A_g            
     e(  5 -  5) =     -1.01373  eV     1   --> B_2u           
     e(  6 -  6) =     -1.00253  eV     1   --> B_1g           
     e(  7 -  7) =      2.92757  eV     1   --> B_2g           
     e(  8 -  8) =      3.20185  eV     1   --> B_1u           
     e(  9 -  9) =      6.97849  eV     1   --> B_1u           
     e( 10 - 10) =      7.32047  eV     1   --> B_2g           
     e( 11 - 11) =     12.77501  eV     1   --> A_g            
     e( 12 - 12) =     12.89345  eV     1   --> B_3u           
     e( 13 - 13) =     16.19425  eV     1   --> A_g            
     e( 14 - 14) =     16.33372  eV     1   --> B_3u           
     e( 15 - 15) =     18.58978  eV     1   --> B_1u           
     e( 16 - 16) =     19.34935  eV     1   --> B_2g           

 **************************************************************************

 **************************************************************************

                    xk=(   0.00000,  -0.57735,  -0.15802  )

     zone border point and non-symmorphic group 
     symmetry decomposition not available

 **************************************************************************

 **************************************************************************

                    xk=(   0.16667,   0.28868,   0.00000  )

     point group C_2v (mm2) 
     there are  4 classes
     the character table:

       E     C2    s_v   s_v' 
A_1    1.00  1.00  1.00  1.00
A_2    1.00  1.00 -1.00 -1.00
B_1    1.00 -1.00  1.00 -1.00
B_2    1.00 -1.00 -1.00  1.00

     the symmetry operations in each class and the name of the first element:

     E        1
                                                                 
     C2       2
                                                                 
     s_v      3
                                                                 
     s_v'     4
                                                                 

     Band symmetry, C_2v (mm2)  point group:

     e(  1 -  1) =    -12.16891  eV     1   --> A_1  D_1  S_1  
     e(  2 -  2) =    -12.09675  eV     1   --> B_1  D_3  S_3  
     e(  3 -  3) =     -2.35274  eV     1   --> A_1  D_1  S_1  
     e(  4 -  4) =     -2.34035  eV     1   --> B_1  D_3  S_3  
     e(  5 -  5) =     -1.00528  eV     1   --> B_1  D_3  S_3  
     e(  6 -  6) =     -0.99626  eV     1   --> A_1  D_1  S_1  
     e(  7 -  7) =     -0.25812  eV     1   --> A_2  D_2  S_2  
     e(  8 -  8) =      0.49904  eV     1   --> B_2  D_4  S_4  
     e(  9 -  9) =     11.34749  eV     1   --> A_1  D_1  S_1  
     e( 10 - 10) =     11.72458  eV     1   --> A_2  D_2  S_2  
     e( 11 - 11) =     11.89233  eV     1   --> B_2  D_4  S_4  
     e( 12 - 12) =     15.07028  eV     1   --> A_2  D_2  S_2  
     e( 13 - 13) =     15.39724  eV     1   --> B_1  D_3  S_3  
     e( 14 - 14) =     15.51770  eV     1   --> A_1  D_1  S_1  
     e( 15 - 15) =     16.93833  eV     1   --> A_1  D_1  S_1  
     e( 16 - 16) =     17.00219  eV     1   --> B_1  D_3  S_3  

 **************************************************************************

 **************************************************************************

                    xk=(   0.16667,   0.28868,  -0.15802  )

     zone border point and non-symmorphic group 
     symmetry decomposition not available

 **************************************************************************

 **************************************************************************

                    xk=(   0.16667,   0.48113,   0.00000  )

     point group C_s (m)    
     there are  2 classes
     the character table:

       E     s    
A'     1.00  1.00
A''    1.00 -1.00

     the symmetry operations in each class and the name of the first element:

     E        1
                                                                 
     s        2
                                                                 

     Band symmetry, C_s (m)     point group:

     e(  1 -  1) =     -9.68216  eV     1   --> A'             
     e(  2 -  2) =     -9.62503  eV     1   --> A'             
     e(  3 -  3) =     -5.99738  eV     1   --> A'             
     e(  4 -  4) =     -5.96060  eV     1   --> A'             
     e(  5 -  5) =     -2.64260  eV     1   --> A'             
     e(  6 -  6) =     -2.62159  eV     1   --> A'             
     e(  7 -  7) =      2.51045  eV     1   --> A''            
     e(  8 -  8) =      3.06360  eV     1   --> A''            
     e(  9 -  9) =      7.81101  eV     1   --> A''            
     e( 10 - 10) =      8.11402  eV     1   --> A''            
     e( 11 - 11) =     14.61773  eV     1   --> A'             
     e( 12 - 12) =     15.36680  eV     1   --> A'             
     e( 13 - 13) =     15.58829  eV     1   --> A'             
     e( 14 - 14) =     16.81892  eV     1   --> A''            
     e( 15 - 15) =     18.48225  eV     1   --> A''            
     e( 16 - 16) =     18.56827  eV     1   --> A'             

 **************************************************************************

 **************************************************************************

                    xk=(   0.16667,   0.48113,  -0.15802  )

     zone border point and non-symmorphic group 
     symmetry decomposition not available

 **************************************************************************

 **************************************************************************

                    xk=(   0.33333,   0.57735,   0.00000  )

     point group D_3h (-62m)
     there are  6 classes
     the character table:

       E     2C3   3C2   s_h   2S3   3s_v 
A'_1   1.00  1.00  1.00  1.00  1.00  1.00
A'_2   1.00  1.00 -1.00  1.00  1.00 -1.00
E'     2.00 -1.00  0.00  2.00 -1.00  0.00
A''1   1.00  1.00  1.00 -1.00 -1.00 -1.00
A''2   1.00  1.00 -1.00 -1.00 -1.00  1.00
E''    2.00 -1.00  0.00 -2.00  1.00  0.00

     the symmetry operations in each class and the name of the first element:

     E        1
                                                                 
     2C3      3    4
                                                                 
     3C2      2    5    6
                                                                 
     s_h      7
                                                                 
     2S3      9   10
                                                                 
     3s_v     8   12   11
                                                                 

     Band symmetry, D_3h (-62m) point group:

     e(  1 -  1) =     -7.19029  eV     1   --> A'_1           
     e(  2 -  3) =     -7.16606  eV     2   --> E'             
     e(  4 -  4) =     -7.14310  eV     1   --> A'_2           
     e(  5 -  6) =     -5.13779  eV     2   --> E'             
     e(  7 -  7) =      5.18762  eV     1   --> A''1           
     e(  8 -  9) =      5.43214  eV     2   --> E''            
     e( 10 - 10) =      5.69666  eV     1   --> A''2           
     e( 11 - 12) =     16.21065  eV     2   --> E''            
     e( 13 - 13) =     17.59344  eV     1   --> A'_1           
     e( 14 - 15) =     17.88339  eV     2   --> E'             
     e( 16 - 16) =     19.85201  eV     1   --> A'_2           

 **************************************************************************

 **************************************************************************

                    xk=(   0.33333,   0.57735,  -0.15802  )

     zone border point and non-symmorphic group 
     symmetry decomposition not available

 **************************************************************************

     BANDS        :     17.02s CPU      4.76s WALL


   This run was terminated on:   0:28:30  20Aug2023            

=------------------------------------------------------------------------------=
   JOB DONE.
=------------------------------------------------------------------------------=
