
     Program PWSCF v.7.0 starts on 24Aug2023 at  2: 2: 9 

     This program is part of the open-source Quantum ESPRESSO suite
     for quantum simulation of materials; please cite
         "P. Giannozzi et al., J. Phys.:Condens. Matter 21 395502 (2009);
         "P. Giannozzi et al., J. Phys.:Condens. Matter 29 465901 (2017);
         "P. Giannozzi et al., J. Chem. Phys. 152 154105 (2020);
          URL http://www.quantum-espresso.org", 
     in publications or presentations arising from this work. More details at
     http://www.quantum-espresso.org/quote

     Serial version
     5106 MiB available memory on the printing compute node when the environment starts

     Waiting for input...
     Reading input from standard input

     Current dimensions of program PWSCF are:
     Max number of different atomic species (ntypx) = 10
     Max number of k-points (npk) =  40000
     Max angular momentum in pseudopotentials (lmaxx) =  4

     G-vector sticks info
     --------------------
     sticks:   dense  smooth     PW     G-vecs:    dense   smooth      PW
     Sum         241     241     85                12161    12161    2287

     Using Slab Decomposition



     bravais-lattice index     =            4
     lattice parameter (alat)  =       4.6531  a.u.
     unit-cell volume          =     354.3310 (a.u.)^3
     number of atoms/cell      =            2
     number of atomic types    =            1
     number of electrons       =         8.00
     number of Kohn-Sham states=            8
     kinetic-energy cutoff     =      40.0000  Ry
     charge density cutoff     =     160.0000  Ry
     scf convergence threshold =      1.0E-06
     mixing beta               =       0.7000
     number of iterations used =            8  plain     mixing
     Exchange-correlation= PBE
                           (   1   4   3   4   0   0   0)

     celldm(1)=   4.653073  celldm(2)=   0.000000  celldm(3)=   4.061244
     celldm(4)=   0.000000  celldm(5)=   0.000000  celldm(6)=   0.000000

     crystal axes: (cart. coord. in units of alat)
               a(1) = (   1.000000   0.000000   0.000000 )  
               a(2) = (  -0.500000   0.866025   0.000000 )  
               a(3) = (   0.000000   0.000000   4.061244 )  

     reciprocal axes: (cart. coord. in units 2 pi/alat)
               b(1) = (  1.000000  0.577350 -0.000000 )  
               b(2) = (  0.000000  1.154701  0.000000 )  
               b(3) = (  0.000000 -0.000000  0.246230 )  


     PseudoPot. # 1 for C  read from file:
     ../pseudo/C.pbe-n-rrkjus_psl.0.1.UPF
     MD5 check sum: 96a6a315177d77e6c95bf6fd3870f9e3
     Pseudo is Ultrasoft + core correction, Zval =  4.0
     Generated using &quot;atomic&quot; code by A. Dal Corso  v.6.3MaX
     Using radial grid of 1073 points,  4 beta functions with: 
                l(1) =   0
                l(2) =   0
                l(3) =   1
                l(4) =   1
     Q(r) pseudized with 0 coefficients 


     atomic species   valence    mass     pseudopotential
        C              4.00    12.01070     C ( 1.00)

     24 Sym. Ops., with inversion, found



   Cartesian axes

     site n.     atom                  positions (alat units)
         1           C   tau(   1) = (   0.0000000   0.5773503   2.0306218  )
         2           C   tau(   2) = (   0.5000000   0.2886751   2.0306218  )

     number of k points=     7  Marzari-Vanderbilt smearing, width (Ry)=  0.0200
                       cart. coord. in units 2pi/alat
        k(    1) = (   0.0000000   0.0000000   0.0000000), wk =   0.0555556
        k(    2) = (   0.0000000   0.1924501   0.0000000), wk =   0.3333333
        k(    3) = (   0.0000000   0.3849002   0.0000000), wk =   0.3333333
        k(    4) = (   0.0000000  -0.5773503   0.0000000), wk =   0.1666667
        k(    5) = (   0.1666667   0.2886751   0.0000000), wk =   0.3333333
        k(    6) = (   0.1666667   0.4811252   0.0000000), wk =   0.6666667
        k(    7) = (   0.3333333   0.5773503   0.0000000), wk =   0.1111111

     Dense  grid:    12161 G-vectors     FFT dimensions: (  20,  20,  80)

     Estimated max dynamical RAM per process >      17.74 MB

     Check: negative core charge=   -0.000021

     Initial potential from superposition of free atoms

     starting charge       7.9999, renormalised to       8.0000

     negative rho (up, down):  1.518E-05 0.000E+00
     Starting wfcs are    8 randomized atomic wfcs

     total cpu time spent up to now is        0.4 secs

     Self-consistent Calculation

     iteration #  1     ecut=    40.00 Ry     beta= 0.70
     Davidson diagonalization with overlap
     ethr =  1.00E-02,  avg # of iterations =  7.4

     negative rho (up, down):  4.668E-06 0.000E+00

     total cpu time spent up to now is        0.6 secs

     total energy              =     -23.85974728 Ry
     estimated scf accuracy    <       0.13033981 Ry

     iteration #  2     ecut=    40.00 Ry     beta= 0.70
     Davidson diagonalization with overlap
     ethr =  1.63E-03,  avg # of iterations =  4.4

     negative rho (up, down):  1.095E-04 0.000E+00

     total cpu time spent up to now is        0.8 secs

     total energy              =     -23.89262586 Ry
     estimated scf accuracy    <       0.01013592 Ry

     iteration #  3     ecut=    40.00 Ry     beta= 0.70
     Davidson diagonalization with overlap
     c_bands:  1 eigenvalues not converged
     ethr =  1.27E-04,  avg # of iterations = 15.0

     negative rho (up, down):  1.198E-04 0.000E+00

     total cpu time spent up to now is        1.0 secs

     total energy              =     -23.90503311 Ry
     estimated scf accuracy    <       0.00258904 Ry

     iteration #  4     ecut=    40.00 Ry     beta= 0.70
     Davidson diagonalization with overlap
     c_bands:  1 eigenvalues not converged
     ethr =  3.24E-05,  avg # of iterations =  5.6

     negative rho (up, down):  2.356E-04 0.000E+00

     total cpu time spent up to now is        1.2 secs

     total energy              =     -23.90572528 Ry
     estimated scf accuracy    <       0.00029160 Ry

     iteration #  5     ecut=    40.00 Ry     beta= 0.70
     Davidson diagonalization with overlap
     ethr =  3.65E-06,  avg # of iterations =  9.0

     negative rho (up, down):  2.099E-04 0.000E+00

     total cpu time spent up to now is        1.4 secs

     total energy              =     -23.90594706 Ry
     estimated scf accuracy    <       0.00025741 Ry

     iteration #  6     ecut=    40.00 Ry     beta= 0.70
     Davidson diagonalization with overlap
     ethr =  3.22E-06,  avg # of iterations =  2.6

     negative rho (up, down):  2.071E-04 0.000E+00

     total cpu time spent up to now is        1.5 secs

     total energy              =     -23.90597780 Ry
     estimated scf accuracy    <       0.00000897 Ry

     iteration #  7     ecut=    40.00 Ry     beta= 0.70
     Davidson diagonalization with overlap
     ethr =  1.12E-07,  avg # of iterations =  4.4

     negative rho (up, down):  2.049E-04 0.000E+00

     total cpu time spent up to now is        1.7 secs

     End of self-consistent calculation

          k = 0.0000 0.0000 0.0000 (  1527 PWs)   bands (ev):

   -19.9999  -8.0981  -3.5246  -3.5246   2.3068   3.9962   4.8870   7.8756

          k = 0.0000 0.1925 0.0000 (  1520 PWs)   bands (ev):

   -19.3452  -7.3171  -5.8097  -4.6578   3.2097   4.8854   5.7679   7.9084

          k = 0.0000 0.3849 0.0000 (  1514 PWs)   bands (ev):

   -17.4137 -10.1115  -6.2744  -5.0925   4.4731   5.9091   7.2840   7.5702

          k = 0.0000-0.5774 0.0000 (  1508 PWs)   bands (ev):

   -14.7451 -13.7269  -6.9110  -2.8186   1.2301   6.9709  10.3201  10.4209

          k = 0.1667 0.2887 0.0000 (  1509 PWs)   bands (ev):

   -18.0519  -8.2430  -6.9062  -5.8014   5.0138   5.9483   6.6407   7.5364

          k = 0.1667 0.4811 0.0000 (  1515 PWs)   bands (ev):

   -15.5647 -11.8843  -8.5391  -3.1145   2.0764   8.5883   9.6048   9.9227

          k = 0.3333 0.5774 0.0000 (  1485 PWs)   bands (ev):

   -13.0671 -13.0671 -11.0606  -0.4497  -0.4497  10.1555  12.3436  12.3444

     the Fermi energy is    -0.4118 ev

!    total energy              =     -23.90599708 Ry
     estimated scf accuracy    <       0.00000036 Ry
     smearing contrib. (-TS)   =      -0.00072930 Ry
     internal energy E=F+TS    =     -23.90526778 Ry

     The total energy is F=E-TS. E is the sum of the following terms:
     one-electron contribution =     -90.79910939 Ry
     hartree contribution      =      47.23755233 Ry
     xc contribution           =      -8.30675996 Ry
     ewald contribution        =      27.96304925 Ry

     convergence has been achieved in   7 iterations

     Writing all to output data dir ../tmp/gr.save/

     init_run     :      0.30s CPU      0.31s WALL (       1 calls)
     electrons    :      1.01s CPU      1.25s WALL (       1 calls)

     Called by init_run:
     wfcinit      :      0.10s CPU      0.10s WALL (       1 calls)
     potinit      :      0.02s CPU      0.02s WALL (       1 calls)
     hinit0       :      0.17s CPU      0.18s WALL (       1 calls)

     Called by electrons:
     c_bands      :      0.81s CPU      0.99s WALL (       7 calls)
     sum_band     :      0.10s CPU      0.11s WALL (       7 calls)
     v_of_rho     :      0.06s CPU      0.06s WALL (       8 calls)
     newd         :      0.03s CPU      0.03s WALL (       8 calls)
     mix_rho      :      0.01s CPU      0.01s WALL (       7 calls)

     Called by c_bands:
     init_us_2    :      0.01s CPU      0.02s WALL (     105 calls)
     init_us_2:cp :      0.01s CPU      0.02s WALL (     105 calls)
     cegterg      :      0.77s CPU      0.78s WALL (      49 calls)

     Called by *egterg:
     cdiaghg      :      0.02s CPU      0.02s WALL (     388 calls)
     h_psi        :      0.65s CPU      0.65s WALL (     395 calls)
     s_psi        :      0.03s CPU      0.03s WALL (     395 calls)
     g_psi        :      0.01s CPU      0.01s WALL (     339 calls)

     Called by h_psi:
     h_psi:calbec :      0.03s CPU      0.03s WALL (     395 calls)
     vloc_psi     :      0.58s CPU      0.58s WALL (     395 calls)
     add_vuspsi   :      0.03s CPU      0.03s WALL (     395 calls)

     General routines
     calbec       :      0.04s CPU      0.04s WALL (     444 calls)
     fft          :      0.12s CPU      0.12s WALL (      88 calls)
     ffts         :      0.00s CPU      0.00s WALL (       7 calls)
     fftw         :      0.57s CPU      0.58s WALL (    3752 calls)


     PWSCF        :      1.34s CPU      1.99s WALL


   This run was terminated on:   2: 2:11  24Aug2023            

=------------------------------------------------------------------------------=
   JOB DONE.
=------------------------------------------------------------------------------=
