
     Program PWSCF v.7.0 starts on 24Aug2023 at  2: 2:16 

     This program is part of the open-source Quantum ESPRESSO suite
     for quantum simulation of materials; please cite
         "P. Giannozzi et al., J. Phys.:Condens. Matter 21 395502 (2009);
         "P. Giannozzi et al., J. Phys.:Condens. Matter 29 465901 (2017);
         "P. Giannozzi et al., J. Chem. Phys. 152 154105 (2020);
          URL http://www.quantum-espresso.org", 
     in publications or presentations arising from this work. More details at
     http://www.quantum-espresso.org/quote

     Serial version
     5107 MiB available memory on the printing compute node when the environment starts

     Waiting for input...
     Reading input from standard input

     Current dimensions of program PWSCF are:
     Max number of different atomic species (ntypx) = 10
     Max number of k-points (npk) =  40000
     Max angular momentum in pseudopotentials (lmaxx) =  4

     G-vector sticks info
     --------------------
     sticks:   dense  smooth     PW     G-vecs:    dense   smooth      PW
     Sum         241     241     85                12161    12161    2287

     Using Slab Decomposition



     bravais-lattice index     =            4
     lattice parameter (alat)  =       4.6531  a.u.
     unit-cell volume          =     354.3310 (a.u.)^3
     number of atoms/cell      =            2
     number of atomic types    =            1
     number of electrons       =         8.00
     number of Kohn-Sham states=            8
     kinetic-energy cutoff     =      40.0000  Ry
     charge density cutoff     =     160.0000  Ry
     scf convergence threshold =      1.0E-06
     mixing beta               =       0.7000
     number of iterations used =            8  plain     mixing
     Exchange-correlation= PBE
                           (   1   4   3   4   0   0   0)

     celldm(1)=   4.653073  celldm(2)=   0.000000  celldm(3)=   4.061244
     celldm(4)=   0.000000  celldm(5)=   0.000000  celldm(6)=   0.000000

     crystal axes: (cart. coord. in units of alat)
               a(1) = (   1.000000   0.000000   0.000000 )  
               a(2) = (  -0.500000   0.866025   0.000000 )  
               a(3) = (   0.000000   0.000000   4.061244 )  

     reciprocal axes: (cart. coord. in units 2 pi/alat)
               b(1) = (  1.000000  0.577350 -0.000000 )  
               b(2) = (  0.000000  1.154701  0.000000 )  
               b(3) = (  0.000000 -0.000000  0.246230 )  


     PseudoPot. # 1 for C  read from file:
     ../pseudo/C.pbe-n-rrkjus_psl.0.1.UPF
     MD5 check sum: 96a6a315177d77e6c95bf6fd3870f9e3
     Pseudo is Ultrasoft + core correction, Zval =  4.0
     Generated using &quot;atomic&quot; code by A. Dal Corso  v.6.3MaX
     Using radial grid of 1073 points,  4 beta functions with: 
                l(1) =   0
                l(2) =   0
                l(3) =   1
                l(4) =   1
     Q(r) pseudized with 0 coefficients 


     atomic species   valence    mass     pseudopotential
        C              4.00    12.01070     C ( 1.00)

     24 Sym. Ops., with inversion, found



   Cartesian axes

     site n.     atom                  positions (alat units)
         1           C   tau(   1) = (   0.0000000   0.5773503   2.0306218  )
         2           C   tau(   2) = (   0.5000000   0.2886751   2.0306218  )

     number of k points=    12  Marzari-Vanderbilt smearing, width (Ry)=  0.0200
                       cart. coord. in units 2pi/alat
        k(    1) = (   0.0000000   0.0000000   0.0000000), wk =   0.0246914
        k(    2) = (   0.0000000   0.1283001   0.0000000), wk =   0.1481481
        k(    3) = (   0.0000000   0.2566001   0.0000000), wk =   0.1481481
        k(    4) = (   0.0000000   0.3849002   0.0000000), wk =   0.1481481
        k(    5) = (   0.0000000   0.5132002   0.0000000), wk =   0.1481481
        k(    6) = (   0.1111111   0.1924501   0.0000000), wk =   0.1481481
        k(    7) = (   0.1111111   0.3207501   0.0000000), wk =   0.2962963
        k(    8) = (   0.1111111   0.4490502   0.0000000), wk =   0.2962963
        k(    9) = (   0.1111111   0.5773503   0.0000000), wk =   0.1481481
        k(   10) = (   0.2222222   0.3849002   0.0000000), wk =   0.1481481
        k(   11) = (   0.2222222   0.5132002   0.0000000), wk =   0.2962963
        k(   12) = (   0.3333333   0.5773503   0.0000000), wk =   0.0493827

     Dense  grid:    12161 G-vectors     FFT dimensions: (  20,  20,  80)

     Estimated max dynamical RAM per process >      18.67 MB

     Check: negative core charge=   -0.000021

     Initial potential from superposition of free atoms

     starting charge       7.9999, renormalised to       8.0000

     negative rho (up, down):  1.518E-05 0.000E+00
     Starting wfcs are    8 randomized atomic wfcs

     total cpu time spent up to now is        0.5 secs

     Self-consistent Calculation

     iteration #  1     ecut=    40.00 Ry     beta= 0.70
     Davidson diagonalization with overlap
     ethr =  1.00E-02,  avg # of iterations =  7.8

     negative rho (up, down):  1.057E-06 0.000E+00

     total cpu time spent up to now is        0.8 secs

     total energy              =     -23.86255686 Ry
     estimated scf accuracy    <       0.11927377 Ry

     iteration #  2     ecut=    40.00 Ry     beta= 0.70
     Davidson diagonalization with overlap
     ethr =  1.49E-03,  avg # of iterations =  4.8

     negative rho (up, down):  1.467E-04 0.000E+00

     total cpu time spent up to now is        1.0 secs

     total energy              =     -23.89723052 Ry
     estimated scf accuracy    <       0.01246985 Ry

     iteration #  3     ecut=    40.00 Ry     beta= 0.70
     Davidson diagonalization with overlap
     c_bands:  1 eigenvalues not converged
     c_bands:  1 eigenvalues not converged
     c_bands:  1 eigenvalues not converged
     ethr =  1.56E-04,  avg # of iterations = 13.8

     negative rho (up, down):  1.389E-04 0.000E+00

     total cpu time spent up to now is        1.4 secs

     total energy              =     -23.90868110 Ry
     estimated scf accuracy    <       0.00359112 Ry

     iteration #  4     ecut=    40.00 Ry     beta= 0.70
     Davidson diagonalization with overlap
     c_bands:  1 eigenvalues not converged
     ethr =  4.49E-05,  avg # of iterations =  7.2

     negative rho (up, down):  2.418E-04 0.000E+00

     total cpu time spent up to now is        1.7 secs

     total energy              =     -23.90791787 Ry
     estimated scf accuracy    <       0.00201345 Ry

     iteration #  5     ecut=    40.00 Ry     beta= 0.70
     Davidson diagonalization with overlap
     ethr =  2.52E-05,  avg # of iterations =  4.9

     negative rho (up, down):  2.218E-04 0.000E+00

     total cpu time spent up to now is        1.9 secs

     total energy              =     -23.90842463 Ry
     estimated scf accuracy    <       0.00045849 Ry

     iteration #  6     ecut=    40.00 Ry     beta= 0.70
     Davidson diagonalization with overlap
     ethr =  5.73E-06,  avg # of iterations =  5.2

     negative rho (up, down):  2.086E-04 0.000E+00

     total cpu time spent up to now is        2.1 secs

     total energy              =     -23.90850478 Ry
     estimated scf accuracy    <       0.00005025 Ry

     iteration #  7     ecut=    40.00 Ry     beta= 0.70
     Davidson diagonalization with overlap
     ethr =  6.28E-07,  avg # of iterations =  5.2

     negative rho (up, down):  2.090E-04 0.000E+00

     total cpu time spent up to now is        2.4 secs

     total energy              =     -23.90855262 Ry
     estimated scf accuracy    <       0.00001090 Ry

     iteration #  8     ecut=    40.00 Ry     beta= 0.70
     Davidson diagonalization with overlap
     ethr =  1.36E-07,  avg # of iterations =  2.8

     negative rho (up, down):  2.091E-04 0.000E+00

     total cpu time spent up to now is        2.6 secs

     total energy              =     -23.90855366 Ry
     estimated scf accuracy    <       0.00001113 Ry

     iteration #  9     ecut=    40.00 Ry     beta= 0.70
     Davidson diagonalization with overlap
     ethr =  1.36E-07,  avg # of iterations =  1.1

     negative rho (up, down):  2.080E-04 0.000E+00

     total cpu time spent up to now is        2.8 secs

     total energy              =     -23.90854782 Ry
     estimated scf accuracy    <       0.00000990 Ry

     iteration # 10     ecut=    40.00 Ry     beta= 0.70
     Davidson diagonalization with overlap
     ethr =  1.24E-07,  avg # of iterations =  1.8

     negative rho (up, down):  2.039E-04 0.000E+00

     total cpu time spent up to now is        2.9 secs

     End of self-consistent calculation

          k = 0.0000 0.0000 0.0000 (  1527 PWs)   bands (ev):

   -19.9966  -8.0962  -3.5203  -3.5203   2.3059   3.9952   4.8869   7.8792

          k = 0.0000 0.1283 0.0000 (  1516 PWs)   bands (ev):

   -19.7050  -7.7473  -4.6331  -4.0933   2.7072   4.3912   5.2781   7.9645

          k = 0.0000 0.2566 0.0000 (  1526 PWs)   bands (ev):

   -18.8360  -7.1789  -6.7186  -5.2493   3.9105   5.5654   6.4481   7.5855

          k = 0.0000 0.3849 0.0000 (  1514 PWs)   bands (ev):

   -17.4103 -10.1077  -6.2703  -5.0905   4.4755   5.9082   7.2873   7.5693

          k = 0.0000 0.5132 0.0000 (  1510 PWs)   bands (ev):

   -15.5038 -12.8528  -6.8343  -3.2431   1.7727   7.0093   8.7024  10.2553

          k = 0.1111 0.1925 0.0000 (  1525 PWs)   bands (ev):

   -19.1247  -7.0578  -6.1864  -5.2385   3.5100   5.1798   6.0649   8.3823

          k = 0.1111 0.3208 0.0000 (  1512 PWs)   bands (ev):

   -17.9772  -8.6340  -6.6221  -5.7196   5.1126   5.7323   6.7615   7.6242

          k = 0.1111 0.4491 0.0000 (  1521 PWs)   bands (ev):

   -16.3003 -11.3933  -7.5025  -3.8886   2.8818   7.4995   8.3590   9.0498

          k = 0.1111 0.5774 0.0000 (  1500 PWs)   bands (ev):

   -14.5543 -13.5396  -7.8023  -2.5495   1.1540   8.2071  10.5911  10.7040

          k = 0.2222 0.3849 0.0000 (  1515 PWs)   bands (ev):

   -16.5759 -10.1471  -8.6365  -4.1349   3.5115   7.1070   8.5900   9.5756

          k = 0.2222 0.5132 0.0000 (  1499 PWs)   bands (ev):

   -14.7247 -12.2620  -9.6347  -2.2550   1.2680   9.8512  10.4500  11.0638

          k = 0.3333 0.5774 0.0000 (  1485 PWs)   bands (ev):

   -13.0635 -13.0635 -11.0569  -0.4476  -0.4476  10.1572  12.3437  12.3447

     the Fermi energy is    -0.4096 ev

!    total energy              =     -23.90854920 Ry
     estimated scf accuracy    <       0.00000031 Ry
     smearing contrib. (-TS)   =      -0.00032413 Ry
     internal energy E=F+TS    =     -23.90822507 Ry

     The total energy is F=E-TS. E is the sum of the following terms:
     one-electron contribution =     -90.80268269 Ry
     hartree contribution      =      47.23819129 Ry
     xc contribution           =      -8.30678291 Ry
     ewald contribution        =      27.96304925 Ry

     convergence has been achieved in  10 iterations

     Writing all to output data dir ../tmp/gr.save/

     init_run     :      0.31s CPU      0.33s WALL (       1 calls)
     electrons    :      1.97s CPU      2.51s WALL (       1 calls)

     Called by init_run:
     wfcinit      :      0.12s CPU      0.12s WALL (       1 calls)
     potinit      :      0.02s CPU      0.02s WALL (       1 calls)
     hinit0       :      0.16s CPU      0.18s WALL (       1 calls)

     Called by electrons:
     c_bands      :      1.61s CPU      2.07s WALL (      10 calls)
     sum_band     :      0.23s CPU      0.23s WALL (      10 calls)
     v_of_rho     :      0.08s CPU      0.08s WALL (      11 calls)
     newd         :      0.05s CPU      0.05s WALL (      11 calls)
     mix_rho      :      0.01s CPU      0.01s WALL (      10 calls)

     Called by c_bands:
     init_us_2    :      0.03s CPU      0.04s WALL (     252 calls)
     init_us_2:cp :      0.03s CPU      0.04s WALL (     252 calls)
     cegterg      :      1.51s CPU      1.58s WALL (     120 calls)

     Called by *egterg:
     cdiaghg      :      0.03s CPU      0.04s WALL (     775 calls)
     h_psi        :      1.21s CPU      1.26s WALL (     787 calls)
     s_psi        :      0.06s CPU      0.07s WALL (     787 calls)
     g_psi        :      0.01s CPU      0.01s WALL (     655 calls)

     Called by h_psi:
     h_psi:calbec :      0.07s CPU      0.07s WALL (     787 calls)
     vloc_psi     :      1.07s CPU      1.12s WALL (     787 calls)
     add_vuspsi   :      0.06s CPU      0.07s WALL (     787 calls)

     General routines
     calbec       :      0.08s CPU      0.09s WALL (     907 calls)
     fft          :      0.12s CPU      0.13s WALL (     121 calls)
     ffts         :      0.00s CPU      0.00s WALL (      10 calls)
     fftw         :      1.09s CPU      1.13s WALL (    7748 calls)


     PWSCF        :      2.32s CPU      3.42s WALL


   This run was terminated on:   2: 2:20  24Aug2023            

=------------------------------------------------------------------------------=
   JOB DONE.
=------------------------------------------------------------------------------=
