
     Program PWSCF v.7.0 starts on 24Aug2023 at  2: 2:14 

     This program is part of the open-source Quantum ESPRESSO suite
     for quantum simulation of materials; please cite
         "P. Giannozzi et al., J. Phys.:Condens. Matter 21 395502 (2009);
         "P. Giannozzi et al., J. Phys.:Condens. Matter 29 465901 (2017);
         "P. Giannozzi et al., J. Chem. Phys. 152 154105 (2020);
          URL http://www.quantum-espresso.org", 
     in publications or presentations arising from this work. More details at
     http://www.quantum-espresso.org/quote

     Serial version
     5106 MiB available memory on the printing compute node when the environment starts

     Waiting for input...
     Reading input from standard input

     Current dimensions of program PWSCF are:
     Max number of different atomic species (ntypx) = 10
     Max number of k-points (npk) =  40000
     Max angular momentum in pseudopotentials (lmaxx) =  4

     G-vector sticks info
     --------------------
     sticks:   dense  smooth     PW     G-vecs:    dense   smooth      PW
     Sum         241     241     85                12161    12161    2203

     Using Slab Decomposition



     bravais-lattice index     =            4
     lattice parameter (alat)  =       4.6531  a.u.
     unit-cell volume          =     354.3310 (a.u.)^3
     number of atoms/cell      =            2
     number of atomic types    =            1
     number of electrons       =         8.00
     number of Kohn-Sham states=            8
     kinetic-energy cutoff     =      40.0000  Ry
     charge density cutoff     =     160.0000  Ry
     scf convergence threshold =      1.0E-06
     mixing beta               =       0.7000
     number of iterations used =            8  plain     mixing
     Exchange-correlation= PBE
                           (   1   4   3   4   0   0   0)

     celldm(1)=   4.653073  celldm(2)=   0.000000  celldm(3)=   4.061244
     celldm(4)=   0.000000  celldm(5)=   0.000000  celldm(6)=   0.000000

     crystal axes: (cart. coord. in units of alat)
               a(1) = (   1.000000   0.000000   0.000000 )  
               a(2) = (  -0.500000   0.866025   0.000000 )  
               a(3) = (   0.000000   0.000000   4.061244 )  

     reciprocal axes: (cart. coord. in units 2 pi/alat)
               b(1) = (  1.000000  0.577350 -0.000000 )  
               b(2) = (  0.000000  1.154701  0.000000 )  
               b(3) = (  0.000000 -0.000000  0.246230 )  


     PseudoPot. # 1 for C  read from file:
     ../pseudo/C.pbe-n-rrkjus_psl.0.1.UPF
     MD5 check sum: 96a6a315177d77e6c95bf6fd3870f9e3
     Pseudo is Ultrasoft + core correction, Zval =  4.0
     Generated using &quot;atomic&quot; code by A. Dal Corso  v.6.3MaX
     Using radial grid of 1073 points,  4 beta functions with: 
                l(1) =   0
                l(2) =   0
                l(3) =   1
                l(4) =   1
     Q(r) pseudized with 0 coefficients 


     atomic species   valence    mass     pseudopotential
        C              4.00    12.01070     C ( 1.00)

     24 Sym. Ops., with inversion, found



   Cartesian axes

     site n.     atom                  positions (alat units)
         1           C   tau(   1) = (   0.0000000   0.5773503   2.0306218  )
         2           C   tau(   2) = (   0.5000000   0.2886751   2.0306218  )

     number of k points=    10  Marzari-Vanderbilt smearing, width (Ry)=  0.0200
                       cart. coord. in units 2pi/alat
        k(    1) = (   0.0000000   0.0000000   0.0000000), wk =   0.0312500
        k(    2) = (   0.0000000   0.1443376   0.0000000), wk =   0.1875000
        k(    3) = (   0.0000000   0.2886751   0.0000000), wk =   0.1875000
        k(    4) = (   0.0000000   0.4330127   0.0000000), wk =   0.1875000
        k(    5) = (   0.0000000  -0.5773503   0.0000000), wk =   0.0937500
        k(    6) = (   0.1250000   0.2165064   0.0000000), wk =   0.1875000
        k(    7) = (   0.1250000   0.3608439   0.0000000), wk =   0.3750000
        k(    8) = (   0.1250000   0.5051815   0.0000000), wk =   0.3750000
        k(    9) = (   0.2500000   0.4330127   0.0000000), wk =   0.1875000
        k(   10) = (   0.2500000   0.5773503   0.0000000), wk =   0.1875000

     Dense  grid:    12161 G-vectors     FFT dimensions: (  20,  20,  80)

     Estimated max dynamical RAM per process >      18.30 MB

     Check: negative core charge=   -0.000021

     Initial potential from superposition of free atoms

     starting charge       7.9999, renormalised to       8.0000

     negative rho (up, down):  1.518E-05 0.000E+00
     Starting wfcs are    8 randomized atomic wfcs

     total cpu time spent up to now is        0.5 secs

     Self-consistent Calculation

     iteration #  1     ecut=    40.00 Ry     beta= 0.70
     Davidson diagonalization with overlap
     ethr =  1.00E-02,  avg # of iterations =  8.1

     negative rho (up, down):  1.801E-06 0.000E+00

     total cpu time spent up to now is        0.7 secs

     total energy              =     -23.85886567 Ry
     estimated scf accuracy    <       0.11143762 Ry

     iteration #  2     ecut=    40.00 Ry     beta= 0.70
     Davidson diagonalization with overlap
     ethr =  1.39E-03,  avg # of iterations =  5.2

     negative rho (up, down):  2.086E-04 0.000E+00

     total cpu time spent up to now is        0.9 secs

     total energy              =     -23.90038364 Ry
     estimated scf accuracy    <       0.01460369 Ry

     iteration #  3     ecut=    40.00 Ry     beta= 0.70
     Davidson diagonalization with overlap
     c_bands:  2 eigenvalues not converged
     ethr =  1.83E-04,  avg # of iterations = 13.7

     negative rho (up, down):  1.499E-04 0.000E+00

     total cpu time spent up to now is        1.2 secs

     total energy              =     -23.90861492 Ry
     estimated scf accuracy    <       0.00454387 Ry

     iteration #  4     ecut=    40.00 Ry     beta= 0.70
     Davidson diagonalization with overlap
     ethr =  5.68E-05,  avg # of iterations =  5.3

     negative rho (up, down):  2.213E-04 0.000E+00

     total cpu time spent up to now is        1.4 secs

     total energy              =     -23.90897034 Ry
     estimated scf accuracy    <       0.00052361 Ry

     iteration #  5     ecut=    40.00 Ry     beta= 0.70
     Davidson diagonalization with overlap
     ethr =  6.55E-06,  avg # of iterations =  9.9

     negative rho (up, down):  2.101E-04 0.000E+00

     total cpu time spent up to now is        1.7 secs

     total energy              =     -23.90939424 Ry
     estimated scf accuracy    <       0.00019937 Ry

     iteration #  6     ecut=    40.00 Ry     beta= 0.70
     Davidson diagonalization with overlap
     ethr =  2.49E-06,  avg # of iterations =  2.6

     negative rho (up, down):  1.997E-04 0.000E+00

     total cpu time spent up to now is        1.9 secs

     total energy              =     -23.90942656 Ry
     estimated scf accuracy    <       0.00000541 Ry

     iteration #  7     ecut=    40.00 Ry     beta= 0.70
     Davidson diagonalization with overlap
     ethr =  6.76E-08,  avg # of iterations =  5.0

     negative rho (up, down):  2.060E-04 0.000E+00

     total cpu time spent up to now is        2.1 secs

     total energy              =     -23.90944325 Ry
     estimated scf accuracy    <       0.00000675 Ry

     iteration #  8     ecut=    40.00 Ry     beta= 0.70
     Davidson diagonalization with overlap
     ethr =  6.76E-08,  avg # of iterations =  2.4

     negative rho (up, down):  2.056E-04 0.000E+00

     total cpu time spent up to now is        2.3 secs

     End of self-consistent calculation

          k = 0.0000 0.0000 0.0000 (  1527 PWs)   bands (ev):

   -20.0035  -8.1002  -3.5295  -3.5295   2.3069   3.9960   4.8875   7.8715

          k = 0.0000 0.1443 0.0000 (  1520 PWs)   bands (ev):

   -19.6346  -7.6591  -4.9083  -4.2336   2.8149   4.4971   5.3831   7.9562

          k = 0.0000 0.2887 0.0000 (  1520 PWs)   bands (ev):

   -18.5375  -7.9119  -6.3662  -5.5441   4.3371   5.9564   6.8545   6.8662

          k = 0.0000 0.4330 0.0000 (  1510 PWs)   bands (ev):

   -16.7494 -11.1901  -6.5528  -4.3797   3.3473   6.8416   7.1790   8.4947

          k = 0.0000-0.5774 0.0000 (  1508 PWs)   bands (ev):

   -14.7491 -13.7308  -6.9156  -2.8214   1.2279   6.9677  10.3199  10.4202

          k = 0.1250 0.2165 0.0000 (  1517 PWs)   bands (ev):

   -18.9016  -6.7905  -6.7081  -5.6390   3.8307   5.4930   6.3784   7.7857

          k = 0.1250 0.3608 0.0000 (  1512 PWs)   bands (ev):

   -17.4581  -9.4960  -7.1577  -5.1250   4.7620   5.8567   7.4681   8.3323

          k = 0.1250 0.5052 0.0000 (  1508 PWs)   bands (ev):

   -15.3884 -12.4975  -7.9253  -3.0265   1.7859   8.5313   8.8898  10.2724

          k = 0.2500 0.4330 0.0000 (  1511 PWs)   bands (ev):

   -15.7167 -11.0081  -9.4545  -3.2015   2.3729   8.3681   9.6082  10.7863

          k = 0.2500 0.5774 0.0000 (  1488 PWs)   bands (ev):

   -13.8032 -12.9361 -10.2373  -1.4789   0.4984  10.4566  11.6188  11.6358

     the Fermi energy is    -0.3055 ev

!    total energy              =     -23.90944457 Ry
     estimated scf accuracy    <       0.00000018 Ry
     smearing contrib. (-TS)   =       0.00000000 Ry
     internal energy E=F+TS    =     -23.90944458 Ry

     The total energy is F=E-TS. E is the sum of the following terms:
     one-electron contribution =     -90.80032404 Ry
     hartree contribution      =      47.23395198 Ry
     xc contribution           =      -8.30612176 Ry
     ewald contribution        =      27.96304925 Ry

     convergence has been achieved in   8 iterations

     Writing all to output data dir ../tmp/gr.save/

     init_run     :      0.31s CPU      0.32s WALL (       1 calls)
     electrons    :      1.45s CPU      1.84s WALL (       1 calls)

     Called by init_run:
     wfcinit      :      0.10s CPU      0.11s WALL (       1 calls)
     potinit      :      0.02s CPU      0.02s WALL (       1 calls)
     hinit0       :      0.18s CPU      0.18s WALL (       1 calls)

     Called by electrons:
     c_bands      :      1.18s CPU      1.51s WALL (       8 calls)
     sum_band     :      0.15s CPU      0.16s WALL (       8 calls)
     v_of_rho     :      0.07s CPU      0.07s WALL (       9 calls)
     newd         :      0.04s CPU      0.04s WALL (       9 calls)
     mix_rho      :      0.01s CPU      0.01s WALL (       8 calls)

     Called by c_bands:
     init_us_2    :      0.02s CPU      0.03s WALL (     170 calls)
     init_us_2:cp :      0.02s CPU      0.03s WALL (     170 calls)
     cegterg      :      1.11s CPU      1.17s WALL (      80 calls)

     Called by *egterg:
     cdiaghg      :      0.03s CPU      0.03s WALL (     602 calls)
     h_psi        :      0.90s CPU      0.94s WALL (     612 calls)
     s_psi        :      0.05s CPU      0.05s WALL (     612 calls)
     g_psi        :      0.01s CPU      0.01s WALL (     522 calls)

     Called by h_psi:
     h_psi:calbec :      0.05s CPU      0.05s WALL (     612 calls)
     vloc_psi     :      0.80s CPU      0.84s WALL (     612 calls)
     add_vuspsi   :      0.05s CPU      0.05s WALL (     612 calls)

     General routines
     calbec       :      0.06s CPU      0.06s WALL (     692 calls)
     fft          :      0.12s CPU      0.12s WALL (      99 calls)
     ffts         :      0.00s CPU      0.00s WALL (       8 calls)
     fftw         :      0.79s CPU      0.84s WALL (    5744 calls)


     PWSCF        :      1.79s CPU      2.66s WALL


   This run was terminated on:   2: 2:16  24Aug2023            

=------------------------------------------------------------------------------=
   JOB DONE.
=------------------------------------------------------------------------------=
