
     Program PWSCF v.7.0 starts on 24Aug2023 at  2: 2:20 

     This program is part of the open-source Quantum ESPRESSO suite
     for quantum simulation of materials; please cite
         "P. Giannozzi et al., J. Phys.:Condens. Matter 21 395502 (2009);
         "P. Giannozzi et al., J. Phys.:Condens. Matter 29 465901 (2017);
         "P. Giannozzi et al., J. Chem. Phys. 152 154105 (2020);
          URL http://www.quantum-espresso.org", 
     in publications or presentations arising from this work. More details at
     http://www.quantum-espresso.org/quote

     Serial version
     5107 MiB available memory on the printing compute node when the environment starts

     Waiting for input...
     Reading input from standard input

     Current dimensions of program PWSCF are:
     Max number of different atomic species (ntypx) = 10
     Max number of k-points (npk) =  40000
     Max angular momentum in pseudopotentials (lmaxx) =  4

     G-vector sticks info
     --------------------
     sticks:   dense  smooth     PW     G-vecs:    dense   smooth      PW
     Sum         241     241     85                12161    12161    2167

     Using Slab Decomposition



     bravais-lattice index     =            4
     lattice parameter (alat)  =       4.6531  a.u.
     unit-cell volume          =     354.3310 (a.u.)^3
     number of atoms/cell      =            2
     number of atomic types    =            1
     number of electrons       =         8.00
     number of Kohn-Sham states=            8
     kinetic-energy cutoff     =      40.0000  Ry
     charge density cutoff     =     160.0000  Ry
     scf convergence threshold =      1.0E-06
     mixing beta               =       0.7000
     number of iterations used =            8  plain     mixing
     Exchange-correlation= PBE
                           (   1   4   3   4   0   0   0)

     celldm(1)=   4.653073  celldm(2)=   0.000000  celldm(3)=   4.061244
     celldm(4)=   0.000000  celldm(5)=   0.000000  celldm(6)=   0.000000

     crystal axes: (cart. coord. in units of alat)
               a(1) = (   1.000000   0.000000   0.000000 )  
               a(2) = (  -0.500000   0.866025   0.000000 )  
               a(3) = (   0.000000   0.000000   4.061244 )  

     reciprocal axes: (cart. coord. in units 2 pi/alat)
               b(1) = (  1.000000  0.577350 -0.000000 )  
               b(2) = (  0.000000  1.154701  0.000000 )  
               b(3) = (  0.000000 -0.000000  0.246230 )  


     PseudoPot. # 1 for C  read from file:
     ../pseudo/C.pbe-n-rrkjus_psl.0.1.UPF
     MD5 check sum: 96a6a315177d77e6c95bf6fd3870f9e3
     Pseudo is Ultrasoft + core correction, Zval =  4.0
     Generated using &quot;atomic&quot; code by A. Dal Corso  v.6.3MaX
     Using radial grid of 1073 points,  4 beta functions with: 
                l(1) =   0
                l(2) =   0
                l(3) =   1
                l(4) =   1
     Q(r) pseudized with 0 coefficients 


     atomic species   valence    mass     pseudopotential
        C              4.00    12.01070     C ( 1.00)

     24 Sym. Ops., with inversion, found



   Cartesian axes

     site n.     atom                  positions (alat units)
         1           C   tau(   1) = (   0.0000000   0.5773503   2.0306218  )
         2           C   tau(   2) = (   0.5000000   0.2886751   2.0306218  )

     number of k points=    14  Marzari-Vanderbilt smearing, width (Ry)=  0.0200
                       cart. coord. in units 2pi/alat
        k(    1) = (   0.0000000   0.0000000   0.0000000), wk =   0.0200000
        k(    2) = (   0.0000000   0.1154701   0.0000000), wk =   0.1200000
        k(    3) = (   0.0000000   0.2309401   0.0000000), wk =   0.1200000
        k(    4) = (   0.0000000   0.3464102   0.0000000), wk =   0.1200000
        k(    5) = (   0.0000000   0.4618802   0.0000000), wk =   0.1200000
        k(    6) = (   0.0000000  -0.5773503   0.0000000), wk =   0.0600000
        k(    7) = (   0.1000000   0.1732051   0.0000000), wk =   0.1200000
        k(    8) = (   0.1000000   0.2886751   0.0000000), wk =   0.2400000
        k(    9) = (   0.1000000   0.4041452   0.0000000), wk =   0.2400000
        k(   10) = (   0.1000000   0.5196152   0.0000000), wk =   0.2400000
        k(   11) = (   0.2000000   0.3464102   0.0000000), wk =   0.1200000
        k(   12) = (   0.2000000   0.4618802   0.0000000), wk =   0.2400000
        k(   13) = (   0.2000000   0.5773503   0.0000000), wk =   0.1200000
        k(   14) = (   0.3000000   0.5196152   0.0000000), wk =   0.1200000

     Dense  grid:    12161 G-vectors     FFT dimensions: (  20,  20,  80)

     Estimated max dynamical RAM per process >      19.04 MB

     Check: negative core charge=   -0.000021

     Initial potential from superposition of free atoms

     starting charge       7.9999, renormalised to       8.0000

     negative rho (up, down):  1.518E-05 0.000E+00
     Starting wfcs are    8 randomized atomic wfcs

     total cpu time spent up to now is        0.5 secs

     Self-consistent Calculation

     iteration #  1     ecut=    40.00 Ry     beta= 0.70
     Davidson diagonalization with overlap
     ethr =  1.00E-02,  avg # of iterations =  7.5

     negative rho (up, down):  3.962E-06 0.000E+00

     total cpu time spent up to now is        0.8 secs

     total energy              =     -23.85670408 Ry
     estimated scf accuracy    <       0.10955432 Ry

     iteration #  2     ecut=    40.00 Ry     beta= 0.70
     Davidson diagonalization with overlap
     ethr =  1.37E-03,  avg # of iterations =  6.1

     negative rho (up, down):  2.016E-04 0.000E+00

     total cpu time spent up to now is        1.1 secs

     total energy              =     -23.89943765 Ry
     estimated scf accuracy    <       0.01570086 Ry

     iteration #  3     ecut=    40.00 Ry     beta= 0.70
     Davidson diagonalization with overlap
     c_bands:  1 eigenvalues not converged
     ethr =  1.96E-04,  avg # of iterations = 13.7

     negative rho (up, down):  1.503E-04 0.000E+00

     total cpu time spent up to now is        1.5 secs

     total energy              =     -23.90886978 Ry
     estimated scf accuracy    <       0.00572432 Ry

     iteration #  4     ecut=    40.00 Ry     beta= 0.70
     Davidson diagonalization with overlap
     ethr =  7.16E-05,  avg # of iterations =  3.2

     negative rho (up, down):  2.455E-04 0.000E+00

     total cpu time spent up to now is        1.8 secs

     total energy              =     -23.90911075 Ry
     estimated scf accuracy    <       0.00107561 Ry

     iteration #  5     ecut=    40.00 Ry     beta= 0.70
     Davidson diagonalization with overlap
     c_bands:  1 eigenvalues not converged
     ethr =  1.34E-05,  avg # of iterations =  9.4

     negative rho (up, down):  2.114E-04 0.000E+00

     total cpu time spent up to now is        2.1 secs

     total energy              =     -23.90969546 Ry
     estimated scf accuracy    <       0.00053310 Ry

     iteration #  6     ecut=    40.00 Ry     beta= 0.70
     Davidson diagonalization with overlap
     c_bands:  1 eigenvalues not converged
     ethr =  6.66E-06,  avg # of iterations =  4.3

     negative rho (up, down):  2.001E-04 0.000E+00

     total cpu time spent up to now is        2.4 secs

     total energy              =     -23.90976818 Ry
     estimated scf accuracy    <       0.00001518 Ry

     iteration #  7     ecut=    40.00 Ry     beta= 0.70
     Davidson diagonalization with overlap
     c_bands:  1 eigenvalues not converged
     ethr =  1.90E-07,  avg # of iterations =  9.0

     negative rho (up, down):  2.026E-04 0.000E+00

     total cpu time spent up to now is        2.8 secs

     total energy              =     -23.90982046 Ry
     estimated scf accuracy    <       0.00000787 Ry

     iteration #  8     ecut=    40.00 Ry     beta= 0.70
     Davidson diagonalization with overlap
     ethr =  9.84E-08,  avg # of iterations =  2.1

     negative rho (up, down):  2.048E-04 0.000E+00

     total cpu time spent up to now is        3.0 secs

     End of self-consistent calculation

          k = 0.0000 0.0000 0.0000 (  1527 PWs)   bands (ev):

   -19.9915  -8.0918  -3.5151  -3.5151   2.3049   3.9937   4.8869   7.8846

          k = 0.0000 0.1155 0.0000 (  1530 PWs)   bands (ev):

   -19.7553  -7.8090  -4.4306  -3.9893   2.6300   4.3145   5.2039   7.9674

          k = 0.0000 0.2309 0.0000 (  1522 PWs)   bands (ev):

   -19.0502  -6.9720  -6.6086  -5.0071   3.6049   5.2703   6.1534   7.8324

          k = 0.0000 0.3464 0.0000 (  1514 PWs)   bands (ev):

   -17.8891  -9.2234  -5.9978  -5.6271   5.2260   5.3982   6.9140   7.3739

          k = 0.0000 0.4619 0.0000 (  1516 PWs)   bands (ev):

   -16.3054 -11.8010  -6.6681  -3.9385   2.7267   7.0798   7.5124   9.0969

          k = 0.0000-0.5774 0.0000 (  1508 PWs)   bands (ev):

   -14.7365 -13.7181  -6.9016  -2.8121   1.2366   6.9791  10.3188  10.4186

          k = 0.1000 0.1732 0.0000 (  1521 PWs)   bands (ev):

   -19.2846  -7.2488  -5.7781  -4.9379   3.2803   4.9539   5.8398   8.4398

          k = 0.1000 0.2887 0.0000 (  1512 PWs)   bands (ev):

   -18.3515  -7.9378  -6.1837  -6.1534   4.5793   6.1865   6.5733   7.1071

          k = 0.1000 0.4041 0.0000 (  1518 PWs)   bands (ev):

   -16.9772 -10.4485  -7.1021  -4.6046   3.8960   6.5198   8.1226   8.2367

          k = 0.1000 0.5196 0.0000 (  1514 PWs)   bands (ev):

   -15.2386 -12.8315  -7.5794  -2.9578   1.6210   8.0197   9.0977  10.5257

          k = 0.2000 0.3464 0.0000 (  1515 PWs)   bands (ev):

   -17.2046  -9.4076  -7.9472  -4.8373   4.4720   6.1988   7.7641   8.6958

          k = 0.2000 0.4619 0.0000 (  1502 PWs)   bands (ev):

   -15.6505 -11.4024  -9.0202  -3.1609   2.2665   8.4464   9.7250  10.5089

          k = 0.2000 0.5774 0.0000 (  1502 PWs)   bands (ev):

   -14.1305 -13.1583  -9.3245  -1.9501   0.8587  10.4118  10.8749  11.1779

          k = 0.3000 0.5196 0.0000 (  1501 PWs)   bands (ev):

   -14.0175 -12.3266 -10.6626  -1.4719   0.5712  10.2743  10.9225  12.5732

     the Fermi energy is    -0.2651 ev

!    total energy              =     -23.90982076 Ry
     estimated scf accuracy    <       0.00000081 Ry
     smearing contrib. (-TS)   =       0.00000000 Ry
     internal energy E=F+TS    =     -23.90982076 Ry

     The total energy is F=E-TS. E is the sum of the following terms:
     one-electron contribution =     -90.79721529 Ry
     hartree contribution      =      47.22992632 Ry
     xc contribution           =      -8.30558104 Ry
     ewald contribution        =      27.96304925 Ry

     convergence has been achieved in   8 iterations

     Writing all to output data dir ../tmp/gr.save/

     init_run     :      0.32s CPU      0.33s WALL (       1 calls)
     electrons    :      2.07s CPU      2.53s WALL (       1 calls)

     Called by init_run:
     wfcinit      :      0.12s CPU      0.12s WALL (       1 calls)
     potinit      :      0.02s CPU      0.02s WALL (       1 calls)
     hinit0       :      0.18s CPU      0.18s WALL (       1 calls)

     Called by electrons:
     c_bands      :      1.76s CPU      2.15s WALL (       8 calls)
     sum_band     :      0.21s CPU      0.21s WALL (       8 calls)
     v_of_rho     :      0.07s CPU      0.07s WALL (       9 calls)
     newd         :      0.04s CPU      0.04s WALL (       9 calls)
     mix_rho      :      0.01s CPU      0.01s WALL (       8 calls)

     Called by c_bands:
     init_us_2    :      0.03s CPU      0.03s WALL (     238 calls)
     init_us_2:cp :      0.03s CPU      0.03s WALL (     238 calls)
     cegterg      :      1.66s CPU      1.69s WALL (     112 calls)

     Called by *egterg:
     cdiaghg      :      0.04s CPU      0.04s WALL (     886 calls)
     h_psi        :      1.29s CPU      1.32s WALL (     900 calls)
     s_psi        :      0.07s CPU      0.07s WALL (     900 calls)
     g_psi        :      0.01s CPU      0.01s WALL (     774 calls)

     Called by h_psi:
     h_psi:calbec :      0.07s CPU      0.07s WALL (     900 calls)
     vloc_psi     :      1.14s CPU      1.17s WALL (     900 calls)
     add_vuspsi   :      0.07s CPU      0.07s WALL (     900 calls)

     General routines
     calbec       :      0.09s CPU      0.09s WALL (    1012 calls)
     fft          :      0.12s CPU      0.12s WALL (      99 calls)
     ffts         :      0.00s CPU      0.00s WALL (       8 calls)
     fftw         :      1.14s CPU      1.16s WALL (    8204 calls)


     PWSCF        :      2.44s CPU      3.41s WALL


   This run was terminated on:   2: 2:23  24Aug2023            

=------------------------------------------------------------------------------=
   JOB DONE.
=------------------------------------------------------------------------------=
