
     Program PWSCF v.7.0 starts on 24Aug2023 at  2: 2: 5 

     This program is part of the open-source Quantum ESPRESSO suite
     for quantum simulation of materials; please cite
         "P. Giannozzi et al., J. Phys.:Condens. Matter 21 395502 (2009);
         "P. Giannozzi et al., J. Phys.:Condens. Matter 29 465901 (2017);
         "P. Giannozzi et al., J. Chem. Phys. 152 154105 (2020);
          URL http://www.quantum-espresso.org", 
     in publications or presentations arising from this work. More details at
     http://www.quantum-espresso.org/quote

     Serial version
     5109 MiB available memory on the printing compute node when the environment starts

     Waiting for input...
     Reading input from standard input

     Current dimensions of program PWSCF are:
     Max number of different atomic species (ntypx) = 10
     Max number of k-points (npk) =  40000
     Max angular momentum in pseudopotentials (lmaxx) =  4

     G-vector sticks info
     --------------------
     sticks:   dense  smooth     PW     G-vecs:    dense   smooth      PW
     Sum         241     241     73                12161    12161    2143

     Using Slab Decomposition



     bravais-lattice index     =            4
     lattice parameter (alat)  =       4.6531  a.u.
     unit-cell volume          =     354.3310 (a.u.)^3
     number of atoms/cell      =            2
     number of atomic types    =            1
     number of electrons       =         8.00
     number of Kohn-Sham states=            8
     kinetic-energy cutoff     =      40.0000  Ry
     charge density cutoff     =     160.0000  Ry
     scf convergence threshold =      1.0E-06
     mixing beta               =       0.7000
     number of iterations used =            8  plain     mixing
     Exchange-correlation= PBE
                           (   1   4   3   4   0   0   0)

     celldm(1)=   4.653073  celldm(2)=   0.000000  celldm(3)=   4.061244
     celldm(4)=   0.000000  celldm(5)=   0.000000  celldm(6)=   0.000000

     crystal axes: (cart. coord. in units of alat)
               a(1) = (   1.000000   0.000000   0.000000 )  
               a(2) = (  -0.500000   0.866025   0.000000 )  
               a(3) = (   0.000000   0.000000   4.061244 )  

     reciprocal axes: (cart. coord. in units 2 pi/alat)
               b(1) = (  1.000000  0.577350 -0.000000 )  
               b(2) = (  0.000000  1.154701  0.000000 )  
               b(3) = (  0.000000 -0.000000  0.246230 )  


     PseudoPot. # 1 for C  read from file:
     ../pseudo/C.pbe-n-rrkjus_psl.0.1.UPF
     MD5 check sum: 96a6a315177d77e6c95bf6fd3870f9e3
     Pseudo is Ultrasoft + core correction, Zval =  4.0
     Generated using &quot;atomic&quot; code by A. Dal Corso  v.6.3MaX
     Using radial grid of 1073 points,  4 beta functions with: 
                l(1) =   0
                l(2) =   0
                l(3) =   1
                l(4) =   1
     Q(r) pseudized with 0 coefficients 


     atomic species   valence    mass     pseudopotential
        C              4.00    12.01070     C ( 1.00)

     24 Sym. Ops., with inversion, found



   Cartesian axes

     site n.     atom                  positions (alat units)
         1           C   tau(   1) = (   0.0000000   0.5773503   2.0306218  )
         2           C   tau(   2) = (   0.5000000   0.2886751   2.0306218  )

     number of k points=     4  Marzari-Vanderbilt smearing, width (Ry)=  0.0200
                       cart. coord. in units 2pi/alat
        k(    1) = (   0.0000000   0.0000000   0.0000000), wk =   0.1250000
        k(    2) = (   0.0000000   0.2886751   0.0000000), wk =   0.7500000
        k(    3) = (   0.0000000  -0.5773503   0.0000000), wk =   0.3750000
        k(    4) = (   0.2500000   0.4330127   0.0000000), wk =   0.7500000

     Dense  grid:    12161 G-vectors     FFT dimensions: (  20,  20,  80)

     Estimated max dynamical RAM per process >      17.19 MB

     Check: negative core charge=   -0.000021

     Initial potential from superposition of free atoms

     starting charge       7.9999, renormalised to       8.0000

     negative rho (up, down):  1.518E-05 0.000E+00
     Starting wfcs are    8 randomized atomic wfcs

     total cpu time spent up to now is        0.5 secs

     Self-consistent Calculation

     iteration #  1     ecut=    40.00 Ry     beta= 0.70
     Davidson diagonalization with overlap
     ethr =  1.00E-02,  avg # of iterations =  9.0

     negative rho (up, down):  1.489E-06 0.000E+00

     total cpu time spent up to now is        0.7 secs

     total energy              =     -23.85924874 Ry
     estimated scf accuracy    <       0.11368686 Ry

     iteration #  2     ecut=    40.00 Ry     beta= 0.70
     Davidson diagonalization with overlap
     ethr =  1.42E-03,  avg # of iterations =  4.8

     negative rho (up, down):  1.248E-04 0.000E+00

     total cpu time spent up to now is        0.8 secs

     total energy              =     -23.90148565 Ry
     estimated scf accuracy    <       0.01530533 Ry

     iteration #  3     ecut=    40.00 Ry     beta= 0.70
     Davidson diagonalization with overlap
     ethr =  1.91E-04,  avg # of iterations = 11.5

     negative rho (up, down):  1.056E-04 0.000E+00

     total cpu time spent up to now is        0.9 secs

     total energy              =     -23.91077272 Ry
     estimated scf accuracy    <       0.00557076 Ry

     iteration #  4     ecut=    40.00 Ry     beta= 0.70
     Davidson diagonalization with overlap
     ethr =  6.96E-05,  avg # of iterations =  1.8

     negative rho (up, down):  2.418E-04 0.000E+00

     total cpu time spent up to now is        1.0 secs

     total energy              =     -23.91131281 Ry
     estimated scf accuracy    <       0.00029493 Ry

     iteration #  5     ecut=    40.00 Ry     beta= 0.70
     Davidson diagonalization with overlap
     c_bands:  1 eigenvalues not converged
     ethr =  3.69E-06,  avg # of iterations = 15.2

     negative rho (up, down):  2.080E-04 0.000E+00

     total cpu time spent up to now is        1.2 secs

     total energy              =     -23.91180380 Ry
     estimated scf accuracy    <       0.00049345 Ry

     iteration #  6     ecut=    40.00 Ry     beta= 0.70
     Davidson diagonalization with overlap
     ethr =  3.69E-06,  avg # of iterations =  3.2

     negative rho (up, down):  1.913E-04 0.000E+00

     total cpu time spent up to now is        1.3 secs

     total energy              =     -23.91182554 Ry
     estimated scf accuracy    <       0.00003166 Ry

     iteration #  7     ecut=    40.00 Ry     beta= 0.70
     Davidson diagonalization with overlap
     ethr =  3.96E-07,  avg # of iterations =  5.5

     negative rho (up, down):  2.061E-04 0.000E+00

     total cpu time spent up to now is        1.4 secs

     total energy              =     -23.91186311 Ry
     estimated scf accuracy    <       0.00004254 Ry

     iteration #  8     ecut=    40.00 Ry     beta= 0.70
     Davidson diagonalization with overlap
     ethr =  3.96E-07,  avg # of iterations =  1.2

     negative rho (up, down):  2.071E-04 0.000E+00

     total cpu time spent up to now is        1.4 secs

     End of self-consistent calculation

          k = 0.0000 0.0000 0.0000 (  1527 PWs)   bands (ev):

   -19.9901  -8.0918  -3.5116  -3.5116   2.3053   3.9945   4.8863   7.8852

          k = 0.0000 0.2887 0.0000 (  1520 PWs)   bands (ev):

   -18.5238  -7.8959  -6.3575  -5.5272   4.3355   5.9550   6.8532   6.8766

          k = 0.0000-0.5774 0.0000 (  1508 PWs)   bands (ev):

   -14.7345 -13.7165  -6.8991  -2.8114   1.2373   6.9803  10.3186  10.4190

          k = 0.2500 0.4330 0.0000 (  1511 PWs)   bands (ev):

   -15.7025 -10.9926  -9.4394  -3.1919   2.3840   8.3666   9.6075  10.7861

     the Fermi energy is    -0.0747 ev

!    total energy              =     -23.91186690 Ry
     estimated scf accuracy    <       0.00000056 Ry
     smearing contrib. (-TS)   =      -0.00000000 Ry
     internal energy E=F+TS    =     -23.91186690 Ry

     The total energy is F=E-TS. E is the sum of the following terms:
     one-electron contribution =     -90.80054690 Ry
     hartree contribution      =      47.23256563 Ry
     xc contribution           =      -8.30693488 Ry
     ewald contribution        =      27.96304925 Ry

     convergence has been achieved in   8 iterations

     Writing all to output data dir ../tmp/gr.save/

     init_run     :      0.26s CPU      0.29s WALL (       1 calls)
     electrons    :      0.73s CPU      0.94s WALL (       1 calls)

     Called by init_run:
     wfcinit      :      0.08s CPU      0.09s WALL (       1 calls)
     potinit      :      0.01s CPU      0.02s WALL (       1 calls)
     hinit0       :      0.17s CPU      0.18s WALL (       1 calls)

     Called by electrons:
     c_bands      :      0.53s CPU      0.67s WALL (       8 calls)
     sum_band     :      0.09s CPU      0.09s WALL (       8 calls)
     v_of_rho     :      0.06s CPU      0.07s WALL (       9 calls)
     newd         :      0.04s CPU      0.04s WALL (       9 calls)
     mix_rho      :      0.01s CPU      0.01s WALL (       8 calls)

     Called by c_bands:
     init_us_2    :      0.01s CPU      0.01s WALL (      68 calls)
     init_us_2:cp :      0.01s CPU      0.01s WALL (      68 calls)
     cegterg      :      0.50s CPU      0.53s WALL (      32 calls)

     Called by *egterg:
     cdiaghg      :      0.01s CPU      0.01s WALL (     241 calls)
     h_psi        :      0.43s CPU      0.46s WALL (     245 calls)
     s_psi        :      0.02s CPU      0.02s WALL (     245 calls)
     g_psi        :      0.00s CPU      0.00s WALL (     209 calls)

     Called by h_psi:
     h_psi:calbec :      0.02s CPU      0.02s WALL (     245 calls)
     vloc_psi     :      0.39s CPU      0.41s WALL (     245 calls)
     add_vuspsi   :      0.02s CPU      0.02s WALL (     245 calls)

     General routines
     calbec       :      0.03s CPU      0.03s WALL (     277 calls)
     fft          :      0.12s CPU      0.12s WALL (      99 calls)
     ffts         :      0.00s CPU      0.00s WALL (       8 calls)
     fftw         :      0.38s CPU      0.41s WALL (    2342 calls)


     PWSCF        :      1.05s CPU      1.80s WALL


   This run was terminated on:   2: 2: 7  24Aug2023            

=------------------------------------------------------------------------------=
   JOB DONE.
=------------------------------------------------------------------------------=
