
     Program PWSCF v.7.0 starts on 24Aug2023 at  2: 2:31 

     This program is part of the open-source Quantum ESPRESSO suite
     for quantum simulation of materials; please cite
         "P. Giannozzi et al., J. Phys.:Condens. Matter 21 395502 (2009);
         "P. Giannozzi et al., J. Phys.:Condens. Matter 29 465901 (2017);
         "P. Giannozzi et al., J. Chem. Phys. 152 154105 (2020);
          URL http://www.quantum-espresso.org", 
     in publications or presentations arising from this work. More details at
     http://www.quantum-espresso.org/quote

     Serial version
     5108 MiB available memory on the printing compute node when the environment starts

     Waiting for input...
     Reading input from standard input

     Current dimensions of program PWSCF are:
     Max number of different atomic species (ntypx) = 10
     Max number of k-points (npk) =  40000
     Max angular momentum in pseudopotentials (lmaxx) =  4

     G-vector sticks info
     --------------------
     sticks:   dense  smooth     PW     G-vecs:    dense   smooth      PW
     Sum         241     241     85                12161    12161    2203

     Using Slab Decomposition



     bravais-lattice index     =            4
     lattice parameter (alat)  =       4.6531  a.u.
     unit-cell volume          =     354.3310 (a.u.)^3
     number of atoms/cell      =            2
     number of atomic types    =            1
     number of electrons       =         8.00
     number of Kohn-Sham states=            8
     kinetic-energy cutoff     =      40.0000  Ry
     charge density cutoff     =     160.0000  Ry
     scf convergence threshold =      1.0E-06
     mixing beta               =       0.7000
     number of iterations used =            8  plain     mixing
     Exchange-correlation= PBE
                           (   1   4   3   4   0   0   0)

     celldm(1)=   4.653073  celldm(2)=   0.000000  celldm(3)=   4.061244
     celldm(4)=   0.000000  celldm(5)=   0.000000  celldm(6)=   0.000000

     crystal axes: (cart. coord. in units of alat)
               a(1) = (   1.000000   0.000000   0.000000 )  
               a(2) = (  -0.500000   0.866025   0.000000 )  
               a(3) = (   0.000000   0.000000   4.061244 )  

     reciprocal axes: (cart. coord. in units 2 pi/alat)
               b(1) = (  1.000000  0.577350 -0.000000 )  
               b(2) = (  0.000000  1.154701  0.000000 )  
               b(3) = (  0.000000 -0.000000  0.246230 )  


     PseudoPot. # 1 for C  read from file:
     ../pseudo/C.pbe-n-rrkjus_psl.0.1.UPF
     MD5 check sum: 96a6a315177d77e6c95bf6fd3870f9e3
     Pseudo is Ultrasoft + core correction, Zval =  4.0
     Generated using &quot;atomic&quot; code by A. Dal Corso  v.6.3MaX
     Using radial grid of 1073 points,  4 beta functions with: 
                l(1) =   0
                l(2) =   0
                l(3) =   1
                l(4) =   1
     Q(r) pseudized with 0 coefficients 


     atomic species   valence    mass     pseudopotential
        C              4.00    12.01070     C ( 1.00)

     24 Sym. Ops., with inversion, found



   Cartesian axes

     site n.     atom                  positions (alat units)
         1           C   tau(   1) = (   0.0000000   0.5773503   2.0306218  )
         2           C   tau(   2) = (   0.5000000   0.2886751   2.0306218  )

     number of k points=    21  Marzari-Vanderbilt smearing, width (Ry)=  0.0200
                       cart. coord. in units 2pi/alat
        k(    1) = (   0.0000000   0.0000000   0.0000000), wk =   0.0118343
        k(    2) = (   0.0000000   0.0888231   0.0000000), wk =   0.0710059
        k(    3) = (   0.0000000   0.1776462   0.0000000), wk =   0.0710059
        k(    4) = (   0.0000000   0.2664694   0.0000000), wk =   0.0710059
        k(    5) = (   0.0000000   0.3552925   0.0000000), wk =   0.0710059
        k(    6) = (   0.0000000   0.4441156   0.0000000), wk =   0.0710059
        k(    7) = (   0.0000000   0.5329387   0.0000000), wk =   0.0710059
        k(    8) = (   0.0769231   0.1332347   0.0000000), wk =   0.0710059
        k(    9) = (   0.0769231   0.2220578   0.0000000), wk =   0.1420118
        k(   10) = (   0.0769231   0.3108809   0.0000000), wk =   0.1420118
        k(   11) = (   0.0769231   0.3997040   0.0000000), wk =   0.1420118
        k(   12) = (   0.0769231   0.4885272   0.0000000), wk =   0.1420118
        k(   13) = (   0.0769231   0.5773503   0.0000000), wk =   0.0710059
        k(   14) = (   0.1538462   0.2664694   0.0000000), wk =   0.0710059
        k(   15) = (   0.1538462   0.3552925   0.0000000), wk =   0.1420118
        k(   16) = (   0.1538462   0.4441156   0.0000000), wk =   0.1420118
        k(   17) = (   0.1538462   0.5329387   0.0000000), wk =   0.1420118
        k(   18) = (   0.2307692   0.3997040   0.0000000), wk =   0.0710059
        k(   19) = (   0.2307692   0.4885272   0.0000000), wk =   0.1420118
        k(   20) = (   0.2307692   0.5773503   0.0000000), wk =   0.0710059
        k(   21) = (   0.3076923   0.5329387   0.0000000), wk =   0.0710059

     Dense  grid:    12161 G-vectors     FFT dimensions: (  20,  20,  80)

     Estimated max dynamical RAM per process >      20.33 MB

     Check: negative core charge=   -0.000021

     Initial potential from superposition of free atoms

     starting charge       7.9999, renormalised to       8.0000

     negative rho (up, down):  1.518E-05 0.000E+00
     Starting wfcs are    8 randomized atomic wfcs

     total cpu time spent up to now is        0.5 secs

     Self-consistent Calculation

     iteration #  1     ecut=    40.00 Ry     beta= 0.70
     Davidson diagonalization with overlap
     ethr =  1.00E-02,  avg # of iterations =  8.1

     negative rho (up, down):  3.015E-06 0.000E+00

     total cpu time spent up to now is        1.0 secs

     WARNING: integrated charge=     8.00001112, expected=     8.00000000

     total energy              =     -23.85957999 Ry
     estimated scf accuracy    <       0.11381413 Ry

     iteration #  2     ecut=    40.00 Ry     beta= 0.70
     Davidson diagonalization with overlap
     ethr =  1.42E-03,  avg # of iterations =  4.3

     negative rho (up, down):  1.633E-04 0.000E+00

     total cpu time spent up to now is        1.3 secs

     WARNING: integrated charge=     8.00001314, expected=     8.00000000

     total energy              =     -23.89745060 Ry
     estimated scf accuracy    <       0.01389740 Ry

     iteration #  3     ecut=    40.00 Ry     beta= 0.70
     Davidson diagonalization with overlap
     c_bands:  1 eigenvalues not converged
     c_bands:  1 eigenvalues not converged
     c_bands:  1 eigenvalues not converged
     ethr =  1.74E-04,  avg # of iterations = 13.8

     negative rho (up, down):  1.373E-04 0.000E+00

     total cpu time spent up to now is        2.0 secs

     WARNING: integrated charge=     8.00001271, expected=     8.00000000

     total energy              =     -23.90899381 Ry
     estimated scf accuracy    <       0.00455032 Ry

     iteration #  4     ecut=    40.00 Ry     beta= 0.70
     Davidson diagonalization with overlap
     ethr =  5.69E-05,  avg # of iterations =  4.0

     negative rho (up, down):  2.533E-04 0.000E+00

     total cpu time spent up to now is        2.4 secs

     WARNING: integrated charge=     8.00002247, expected=     8.00000000

     total energy              =     -23.90905131 Ry
     estimated scf accuracy    <       0.00104355 Ry

     iteration #  5     ecut=    40.00 Ry     beta= 0.70
     Davidson diagonalization with overlap
     c_bands:  1 eigenvalues not converged
     c_bands:  1 eigenvalues not converged
     ethr =  1.30E-05,  avg # of iterations =  8.7

     negative rho (up, down):  2.103E-04 0.000E+00

     total cpu time spent up to now is        2.9 secs

     WARNING: integrated charge=     8.00001820, expected=     8.00000000

     total energy              =     -23.90953622 Ry
     estimated scf accuracy    <       0.00039075 Ry

     iteration #  6     ecut=    40.00 Ry     beta= 0.70
     Davidson diagonalization with overlap
     ethr =  4.88E-06,  avg # of iterations =  4.6

     negative rho (up, down):  2.043E-04 0.000E+00

     total cpu time spent up to now is        3.3 secs

     WARNING: integrated charge=     8.00001795, expected=     8.00000000

     total energy              =     -23.90960045 Ry
     estimated scf accuracy    <       0.00001408 Ry

     iteration #  7     ecut=    40.00 Ry     beta= 0.70
     Davidson diagonalization with overlap
     c_bands:  1 eigenvalues not converged
     ethr =  1.76E-07,  avg # of iterations =  6.7

     negative rho (up, down):  2.066E-04 0.000E+00

     total cpu time spent up to now is        3.8 secs

     WARNING: integrated charge=     8.00001800, expected=     8.00000000

     total energy              =     -23.90963976 Ry
     estimated scf accuracy    <       0.00000115 Ry

     iteration #  8     ecut=    40.00 Ry     beta= 0.70
     Davidson diagonalization with overlap
     ethr =  1.44E-08,  avg # of iterations =  4.6

     negative rho (up, down):  2.065E-04 0.000E+00

     total cpu time spent up to now is        4.3 secs

     WARNING: integrated charge=     8.00001801, expected=     8.00000000

     total energy              =     -23.90964189 Ry
     estimated scf accuracy    <       0.00000321 Ry

     iteration #  9     ecut=    40.00 Ry     beta= 0.70
     Davidson diagonalization with overlap
     ethr =  1.44E-08,  avg # of iterations =  1.3

     negative rho (up, down):  2.053E-04 0.000E+00

     total cpu time spent up to now is        4.6 secs

     WARNING: integrated charge=     8.00001777, expected=     8.00000000

     total energy              =     -23.90964005 Ry
     estimated scf accuracy    <       0.00000335 Ry

     iteration # 10     ecut=    40.00 Ry     beta= 0.70
     Davidson diagonalization with overlap
     ethr =  1.44E-08,  avg # of iterations =  2.0

     negative rho (up, down):  2.042E-04 0.000E+00

     total cpu time spent up to now is        4.9 secs

     End of self-consistent calculation

          k = 0.0000 0.0000 0.0000 (  1527 PWs)   bands (ev):

   -20.0000  -8.0980  -3.5250  -3.5250   2.3064   3.9954   4.8872   7.8754

          k = 0.0000 0.0888 0.0000 (  1528 PWs)   bands (ev):

   -19.8601  -7.9304  -4.0823  -3.8169   2.4987   4.1853   5.0747   7.9394

          k = 0.0000 0.1776 0.0000 (  1512 PWs)   bands (ev):

   -19.4418  -7.4316  -5.5166  -4.5222   3.0758   4.7534   5.6377   7.9297

          k = 0.0000 0.2665 0.0000 (  1532 PWs)   bands (ev):

   -18.7491  -7.4044  -6.6147  -5.3433   4.0367   5.6851   6.5693   7.3616

          k = 0.0000 0.3553 0.0000 (  1518 PWs)   bands (ev):

   -17.7902  -9.4364  -6.0727  -5.5119   5.1810   5.3784   7.0580   7.3518

          k = 0.0000 0.4441 0.0000 (  1510 PWs)   bands (ev):

   -16.5822 -11.4284  -6.6014  -4.2101   3.1022   7.0238   7.2098   8.7223

          k = 0.0000 0.5329 0.0000 (  1512 PWs)   bands (ev):

   -15.1993 -13.2211  -6.8765  -3.0366   1.5029   6.9881   9.1963  10.7263

          k = 0.0769 0.1332 0.0000 (  1523 PWs)   bands (ev):

   -19.5810  -7.5972  -4.9937  -4.4011   2.8835   4.5644   5.4507   8.1875

          k = 0.0769 0.2221 0.0000 (  1517 PWs)   bands (ev):

   -19.0255  -6.9386  -6.5246  -5.2972   3.6528   5.3186   6.2022   8.0914

          k = 0.0769 0.3109 0.0000 (  1516 PWs)   bands (ev):

   -18.1997  -8.4132  -6.1455  -5.9754   4.8048   6.0675   6.5257   7.3144

          k = 0.0769 0.3997 0.0000 (  1516 PWs)   bands (ev):

   -17.1153 -10.3939  -6.8067  -4.7576   4.0471   6.3349   7.8501   7.9597

          k = 0.0769 0.4885 0.0000 (  1515 PWs)   bands (ev):

   -15.8032 -12.2893  -7.2214  -3.4427   2.1533   7.6478   8.2570   9.7820

          k = 0.0769 0.5774 0.0000 (  1508 PWs)   bands (ev):

   -14.6556 -13.6381  -7.3623  -2.6907   1.1972   7.5859  10.4505  10.5574

          k = 0.1538 0.2665 0.0000 (  1513 PWs)   bands (ev):

   -18.3369  -7.7746  -6.5052  -6.1315   4.6136   6.2541   6.5225   7.1443

          k = 0.1538 0.3553 0.0000 (  1515 PWs)   bands (ev):

   -17.3852  -9.3806  -7.5187  -5.0407   4.7062   5.9551   7.5469   8.4494

          k = 0.1538 0.4441 0.0000 (  1508 PWs)   bands (ev):

   -16.1898 -11.1857  -8.1522  -3.7445   2.8411   7.6699   9.1485   9.3360

          k = 0.1538 0.5329 0.0000 (  1512 PWs)   bands (ev):

   -14.8291 -12.8943  -8.4594  -2.5418   1.3240   9.1994   9.7542  10.8348

          k = 0.2308 0.3997 0.0000 (  1513 PWs)   bands (ev):

   -16.3211 -10.4217  -8.8962  -3.8536   3.1520   7.4806   8.9131   9.9367

          k = 0.2308 0.4885 0.0000 (  1497 PWs)   bands (ev):

   -15.0449 -11.8166  -9.6788  -2.5293   1.5933   9.3627  10.2167  11.3034

          k = 0.2308 0.5774 0.0000 (  1500 PWs)   bands (ev):

   -13.9390 -13.0170  -9.8976  -1.6734   0.6550  10.6040  11.2154  11.4431

          k = 0.3077 0.5329 0.0000 (  1493 PWs)   bands (ev):

   -13.7729 -12.5158 -10.8115  -1.2267   0.3157  10.2362  11.3244  12.5565

     the Fermi energy is    -0.2762 ev

     WARNING: integrated charge=     8.00001778, expected=     8.00000000

!    total energy              =     -23.90964010 Ry
     estimated scf accuracy    <       0.00000029 Ry
     smearing contrib. (-TS)   =       0.00000027 Ry
     internal energy E=F+TS    =     -23.90964037 Ry

     The total energy is F=E-TS. E is the sum of the following terms:
     one-electron contribution =     -90.80345562 Ry
     hartree contribution      =      47.23739995 Ry
     xc contribution           =      -8.30663394 Ry
     ewald contribution        =      27.96304925 Ry

     convergence has been achieved in  10 iterations

     Writing all to output data dir ../tmp/gr.save/

     init_run     :      0.34s CPU      0.36s WALL (       1 calls)
     electrons    :      3.61s CPU      4.49s WALL (       1 calls)

     Called by init_run:
     wfcinit      :      0.15s CPU      0.15s WALL (       1 calls)
     potinit      :      0.02s CPU      0.02s WALL (       1 calls)
     hinit0       :      0.17s CPU      0.18s WALL (       1 calls)

     Called by electrons:
     c_bands      :      3.10s CPU      3.92s WALL (      10 calls)
     sum_band     :      0.37s CPU      0.37s WALL (      10 calls)
     v_of_rho     :      0.08s CPU      0.08s WALL (      11 calls)
     newd         :      0.04s CPU      0.04s WALL (      11 calls)
     mix_rho      :      0.01s CPU      0.01s WALL (      10 calls)

     Called by c_bands:
     init_us_2    :      0.06s CPU      0.07s WALL (     441 calls)
     init_us_2:cp :      0.06s CPU      0.07s WALL (     441 calls)
     cegterg      :      2.90s CPU      3.01s WALL (     210 calls)

     Called by *egterg:
     cdiaghg      :      0.07s CPU      0.07s WALL (    1429 calls)
     h_psi        :      2.22s CPU      2.31s WALL (    1450 calls)
     s_psi        :      0.12s CPU      0.13s WALL (    1450 calls)
     g_psi        :      0.02s CPU      0.02s WALL (    1219 calls)

     Called by h_psi:
     h_psi:calbec :      0.13s CPU      0.13s WALL (    1450 calls)
     vloc_psi     :      1.96s CPU      2.04s WALL (    1450 calls)
     add_vuspsi   :      0.12s CPU      0.13s WALL (    1450 calls)

     General routines
     calbec       :      0.16s CPU      0.16s WALL (    1660 calls)
     fft          :      0.13s CPU      0.13s WALL (     121 calls)
     ffts         :      0.00s CPU      0.00s WALL (      10 calls)
     fftw         :      1.96s CPU      2.04s WALL (   14422 calls)


     PWSCF        :      3.99s CPU      5.44s WALL


   This run was terminated on:   2: 2:36  24Aug2023            

=------------------------------------------------------------------------------=
   JOB DONE.
=------------------------------------------------------------------------------=
