
     Program PWSCF v.7.0 starts on 24Aug2023 at  2: 2:36 

     This program is part of the open-source Quantum ESPRESSO suite
     for quantum simulation of materials; please cite
         "P. Giannozzi et al., J. Phys.:Condens. Matter 21 395502 (2009);
         "P. Giannozzi et al., J. Phys.:Condens. Matter 29 465901 (2017);
         "P. Giannozzi et al., J. Chem. Phys. 152 154105 (2020);
          URL http://www.quantum-espresso.org", 
     in publications or presentations arising from this work. More details at
     http://www.quantum-espresso.org/quote

     Serial version
     5107 MiB available memory on the printing compute node when the environment starts

     Waiting for input...
     Reading input from standard input

     Current dimensions of program PWSCF are:
     Max number of different atomic species (ntypx) = 10
     Max number of k-points (npk) =  40000
     Max angular momentum in pseudopotentials (lmaxx) =  4

     G-vector sticks info
     --------------------
     sticks:   dense  smooth     PW     G-vecs:    dense   smooth      PW
     Sum         241     241     85                12161    12161    2263

     Using Slab Decomposition



     bravais-lattice index     =            4
     lattice parameter (alat)  =       4.6531  a.u.
     unit-cell volume          =     354.3310 (a.u.)^3
     number of atoms/cell      =            2
     number of atomic types    =            1
     number of electrons       =         8.00
     number of Kohn-Sham states=            8
     kinetic-energy cutoff     =      40.0000  Ry
     charge density cutoff     =     160.0000  Ry
     scf convergence threshold =      1.0E-06
     mixing beta               =       0.7000
     number of iterations used =            8  plain     mixing
     Exchange-correlation= PBE
                           (   1   4   3   4   0   0   0)

     celldm(1)=   4.653073  celldm(2)=   0.000000  celldm(3)=   4.061244
     celldm(4)=   0.000000  celldm(5)=   0.000000  celldm(6)=   0.000000

     crystal axes: (cart. coord. in units of alat)
               a(1) = (   1.000000   0.000000   0.000000 )  
               a(2) = (  -0.500000   0.866025   0.000000 )  
               a(3) = (   0.000000   0.000000   4.061244 )  

     reciprocal axes: (cart. coord. in units 2 pi/alat)
               b(1) = (  1.000000  0.577350 -0.000000 )  
               b(2) = (  0.000000  1.154701  0.000000 )  
               b(3) = (  0.000000 -0.000000  0.246230 )  


     PseudoPot. # 1 for C  read from file:
     ../pseudo/C.pbe-n-rrkjus_psl.0.1.UPF
     MD5 check sum: 96a6a315177d77e6c95bf6fd3870f9e3
     Pseudo is Ultrasoft + core correction, Zval =  4.0
     Generated using &quot;atomic&quot; code by A. Dal Corso  v.6.3MaX
     Using radial grid of 1073 points,  4 beta functions with: 
                l(1) =   0
                l(2) =   0
                l(3) =   1
                l(4) =   1
     Q(r) pseudized with 0 coefficients 


     atomic species   valence    mass     pseudopotential
        C              4.00    12.01070     C ( 1.00)

     24 Sym. Ops., with inversion, found



   Cartesian axes

     site n.     atom                  positions (alat units)
         1           C   tau(   1) = (   0.0000000   0.5773503   2.0306218  )
         2           C   tau(   2) = (   0.5000000   0.2886751   2.0306218  )

     number of k points=    24  Marzari-Vanderbilt smearing, width (Ry)=  0.0200
                       cart. coord. in units 2pi/alat
        k(    1) = (   0.0000000   0.0000000   0.0000000), wk =   0.0102041
        k(    2) = (   0.0000000   0.0824786   0.0000000), wk =   0.0612245
        k(    3) = (   0.0000000   0.1649572   0.0000000), wk =   0.0612245
        k(    4) = (   0.0000000   0.2474358   0.0000000), wk =   0.0612245
        k(    5) = (   0.0000000   0.3299144   0.0000000), wk =   0.0612245
        k(    6) = (   0.0000000   0.4123930   0.0000000), wk =   0.0612245
        k(    7) = (   0.0000000   0.4948717   0.0000000), wk =   0.0612245
        k(    8) = (   0.0000000  -0.5773503   0.0000000), wk =   0.0306122
        k(    9) = (   0.0714286   0.1237179   0.0000000), wk =   0.0612245
        k(   10) = (   0.0714286   0.2061965   0.0000000), wk =   0.1224490
        k(   11) = (   0.0714286   0.2886751   0.0000000), wk =   0.1224490
        k(   12) = (   0.0714286   0.3711537   0.0000000), wk =   0.1224490
        k(   13) = (   0.0714286   0.4536324   0.0000000), wk =   0.1224490
        k(   14) = (   0.0714286   0.5361110   0.0000000), wk =   0.1224490
        k(   15) = (   0.1428571   0.2474358   0.0000000), wk =   0.0612245
        k(   16) = (   0.1428571   0.3299144   0.0000000), wk =   0.1224490
        k(   17) = (   0.1428571   0.4123930   0.0000000), wk =   0.1224490
        k(   18) = (   0.1428571   0.4948717   0.0000000), wk =   0.1224490
        k(   19) = (   0.1428571   0.5773503   0.0000000), wk =   0.0612245
        k(   20) = (   0.2142857   0.3711537   0.0000000), wk =   0.0612245
        k(   21) = (   0.2142857   0.4536324   0.0000000), wk =   0.1224490
        k(   22) = (   0.2142857   0.5361110   0.0000000), wk =   0.1224490
        k(   23) = (   0.2857143   0.4948717   0.0000000), wk =   0.0612245
        k(   24) = (   0.2857143   0.5773503   0.0000000), wk =   0.0612245

     Dense  grid:    12161 G-vectors     FFT dimensions: (  20,  20,  80)

     Estimated max dynamical RAM per process >      20.88 MB

     Check: negative core charge=   -0.000021

     Initial potential from superposition of free atoms

     starting charge       7.9999, renormalised to       8.0000

     negative rho (up, down):  1.518E-05 0.000E+00
     Starting wfcs are    8 randomized atomic wfcs

     total cpu time spent up to now is        0.6 secs

     Self-consistent Calculation

     iteration #  1     ecut=    40.00 Ry     beta= 0.70
     Davidson diagonalization with overlap
     ethr =  1.00E-02,  avg # of iterations =  8.4

     negative rho (up, down):  3.060E-06 0.000E+00

     total cpu time spent up to now is        1.3 secs

     WARNING: integrated charge=     8.00017825, expected=     8.00000000

     total energy              =     -23.85869045 Ry
     estimated scf accuracy    <       0.11222644 Ry

     iteration #  2     ecut=    40.00 Ry     beta= 0.70
     Davidson diagonalization with overlap
     ethr =  1.40E-03,  avg # of iterations =  4.1

     negative rho (up, down):  1.733E-04 0.000E+00

     total cpu time spent up to now is        1.8 secs

     WARNING: integrated charge=     8.00018879, expected=     8.00000000

     total energy              =     -23.89806852 Ry
     estimated scf accuracy    <       0.01470854 Ry

     iteration #  3     ecut=    40.00 Ry     beta= 0.70
     Davidson diagonalization with overlap
     c_bands:  3 eigenvalues not converged
     c_bands:  2 eigenvalues not converged
     c_bands:  1 eigenvalues not converged
     c_bands:  1 eigenvalues not converged
     ethr =  1.84E-04,  avg # of iterations = 14.7

     negative rho (up, down):  1.444E-04 0.000E+00

     total cpu time spent up to now is        2.7 secs

     WARNING: integrated charge=     8.00020785, expected=     8.00000000

     total energy              =     -23.90925727 Ry
     estimated scf accuracy    <       0.00507720 Ry

     iteration #  4     ecut=    40.00 Ry     beta= 0.70
     Davidson diagonalization with overlap
     ethr =  6.35E-05,  avg # of iterations =  4.0

     negative rho (up, down):  2.563E-04 0.000E+00

     total cpu time spent up to now is        3.1 secs

     WARNING: integrated charge=     8.00035700, expected=     8.00000000

     total energy              =     -23.90885559 Ry
     estimated scf accuracy    <       0.00175570 Ry

     iteration #  5     ecut=    40.00 Ry     beta= 0.70
     Davidson diagonalization with overlap
     c_bands:  1 eigenvalues not converged
     ethr =  2.19E-05,  avg # of iterations =  8.8

     negative rho (up, down):  2.142E-04 0.000E+00

     total cpu time spent up to now is        3.7 secs

     WARNING: integrated charge=     8.00030905, expected=     8.00000000

     total energy              =     -23.90938362 Ry
     estimated scf accuracy    <       0.00068795 Ry

     iteration #  6     ecut=    40.00 Ry     beta= 0.70
     Davidson diagonalization with overlap
     ethr =  8.60E-06,  avg # of iterations =  3.7

     negative rho (up, down):  1.915E-04 0.000E+00

     total cpu time spent up to now is        4.1 secs

     WARNING: integrated charge=     8.00030511, expected=     8.00000000

     total energy              =     -23.90946672 Ry
     estimated scf accuracy    <       0.00002622 Ry

     iteration #  7     ecut=    40.00 Ry     beta= 0.70
     Davidson diagonalization with overlap
     ethr =  3.28E-07,  avg # of iterations =  8.4

     negative rho (up, down):  2.031E-04 0.000E+00

     total cpu time spent up to now is        4.8 secs

     WARNING: integrated charge=     8.00030761, expected=     8.00000000

     total energy              =     -23.90952948 Ry
     estimated scf accuracy    <       0.00002660 Ry

     iteration #  8     ecut=    40.00 Ry     beta= 0.70
     Davidson diagonalization with overlap
     ethr =  3.28E-07,  avg # of iterations =  1.6

     negative rho (up, down):  2.056E-04 0.000E+00

     total cpu time spent up to now is        5.1 secs

     End of self-consistent calculation

          k = 0.0000 0.0000 0.0000 (  1527 PWs)   bands (ev):

   -19.9903  -8.0895  -3.5150  -3.5150   2.3042   3.9934   4.8862   7.8854

          k = 0.0000 0.0825 0.0000 (  1532 PWs)   bands (ev):

   -19.8697  -7.9450  -3.9984  -3.7687   2.4701   4.1571   5.0481   7.9435

          k = 0.0000 0.1650 0.0000 (  1512 PWs)   bands (ev):

   -19.5088  -7.5143  -5.2648  -4.3980   2.9677   4.6473   5.5339   7.9556

          k = 0.0000 0.2474 0.0000 (  1526 PWs)   bands (ev):

   -18.9106  -6.9696  -6.8069  -5.1598   3.7965   5.4562   6.3395   7.7928

          k = 0.0000 0.3299 0.0000 (  1514 PWs)   bands (ev):

   -18.0809  -8.8437  -5.8714  -5.8444   4.9546   5.7780   6.6709   7.3300

          k = 0.0000 0.4124 0.0000 (  1510 PWs)   bands (ev):

   -17.0306 -10.7203  -6.4298  -4.6785   3.8321   6.4339   7.2260   8.0837

          k = 0.0000 0.4949 0.0000 (  1510 PWs)   bands (ev):

   -15.7891 -12.4851  -6.7816  -3.4680   2.0842   7.0379   8.2593   9.8303

          k = 0.0000-0.5774 0.0000 (  1508 PWs)   bands (ev):

   -14.7356 -13.7172  -6.9013  -2.8101   1.2387   6.9806  10.3189  10.4184

          k = 0.0714 0.1237 0.0000 (  1523 PWs)   bands (ev):

   -19.6290  -7.6574  -4.8079  -4.2766   2.8019   4.4844   5.3719   8.1503

          k = 0.0714 0.2062 0.0000 (  1521 PWs)   bands (ev):

   -19.1494  -7.0879  -6.1860  -5.0819   3.4653   5.1353   6.0205   8.4391

          k = 0.0714 0.2887 0.0000 (  1516 PWs)   bands (ev):

   -18.4355  -7.9106  -6.2510  -5.8851   4.4592   6.0748   6.7256   6.9868

          k = 0.0714 0.3712 0.0000 (  1511 PWs)   bands (ev):

   -17.4951  -9.7545  -6.5521  -5.1789   4.7328   5.7808   7.4260   7.8330

          k = 0.0714 0.4536 0.0000 (  1515 PWs)   bands (ev):

   -16.3454 -11.5644  -7.0214  -3.9569   2.8626   7.4023   7.6810   9.0143

          k = 0.0714 0.5361 0.0000 (  1521 PWs)   bands (ev):

   -15.0620 -13.1930  -7.2624  -2.8917   1.4478   7.5282   9.3955  10.8523

          k = 0.1429 0.2474 0.0000 (  1517 PWs)   bands (ev):

   -18.5541  -7.3582  -6.3876  -6.1569   4.2942   5.9445   6.8338   7.0203

          k = 0.1429 0.3299 0.0000 (  1516 PWs)   bands (ev):

   -17.7294  -8.8524  -7.1177  -5.4344   5.3355   5.4522   7.0692   7.9618

          k = 0.1429 0.4124 0.0000 (  1520 PWs)   bands (ev):

   -16.6875 -10.5472  -7.7806  -4.2760   3.5590   6.9350   8.4821   9.1060

          k = 0.1429 0.4949 0.0000 (  1511 PWs)   bands (ev):

   -15.4601 -12.2254  -8.1700  -3.0565   1.9241   8.7175   9.0107  10.1090

          k = 0.1429 0.5774 0.0000 (  1498 PWs)   bands (ev):

   -14.4262 -13.4178  -8.2992  -2.3691   1.0902   8.9259  10.7660  10.8888

          k = 0.2143 0.3712 0.0000 (  1515 PWs)   bands (ev):

   -16.8026  -9.8841  -8.3891  -4.3861   3.8550   6.7712   8.2897   9.2507

          k = 0.2143 0.4536 0.0000 (  1508 PWs)   bands (ev):

   -15.6758 -11.2251  -9.2025  -3.1741   2.3240   8.4070   9.6693  10.7616

          k = 0.2143 0.5361 0.0000 (  1501 PWs)   bands (ev):

   -14.4298 -12.6688  -9.5472  -2.0479   1.0254  10.3238  10.6418  10.8373

          k = 0.2857 0.4949 0.0000 (  1501 PWs)   bands (ev):

   -14.5021 -11.9734 -10.3580  -1.9525   1.0571  10.1677  10.2969  12.3729

          k = 0.2857 0.5774 0.0000 (  1496 PWs)   bands (ev):

   -13.5011 -12.8342 -10.7531  -1.0616   0.1574  10.2606  11.9536  12.1014

     the Fermi energy is    -0.2821 ev

     WARNING: integrated charge=     8.00030518, expected=     8.00000000

!    total energy              =     -23.90953223 Ry
     estimated scf accuracy    <       0.00000063 Ry
     smearing contrib. (-TS)   =       0.00000486 Ry
     internal energy E=F+TS    =     -23.90953709 Ry

     The total energy is F=E-TS. E is the sum of the following terms:
     one-electron contribution =     -90.79797872 Ry
     hartree contribution      =      47.23099571 Ry
     xc contribution           =      -8.30560332 Ry
     ewald contribution        =      27.96304925 Ry

     convergence has been achieved in   8 iterations

     Writing all to output data dir ../tmp/gr.save/

     init_run     :      0.39s CPU      0.42s WALL (       1 calls)
     electrons    :      3.71s CPU      4.62s WALL (       1 calls)

     Called by init_run:
     wfcinit      :      0.19s CPU      0.20s WALL (       1 calls)
     potinit      :      0.02s CPU      0.02s WALL (       1 calls)
     hinit0       :      0.17s CPU      0.18s WALL (       1 calls)

     Called by electrons:
     c_bands      :      3.24s CPU      4.07s WALL (       8 calls)
     sum_band     :      0.36s CPU      0.36s WALL (       8 calls)
     v_of_rho     :      0.07s CPU      0.07s WALL (       9 calls)
     newd         :      0.04s CPU      0.04s WALL (       9 calls)
     mix_rho      :      0.01s CPU      0.01s WALL (       8 calls)

     Called by c_bands:
     init_us_2    :      0.07s CPU      0.07s WALL (     408 calls)
     init_us_2:cp :      0.07s CPU      0.07s WALL (     408 calls)
     cegterg      :      3.03s CPU      3.17s WALL (     192 calls)

     Called by *egterg:
     cdiaghg      :      0.08s CPU      0.08s WALL (    1478 calls)
     h_psi        :      2.32s CPU      2.44s WALL (    1502 calls)
     s_psi        :      0.13s CPU      0.13s WALL (    1502 calls)
     g_psi        :      0.02s CPU      0.02s WALL (    1286 calls)

     Called by h_psi:
     h_psi:calbec :      0.14s CPU      0.15s WALL (    1502 calls)
     vloc_psi     :      2.04s CPU      2.14s WALL (    1502 calls)
     add_vuspsi   :      0.13s CPU      0.14s WALL (    1502 calls)

     General routines
     calbec       :      0.17s CPU      0.18s WALL (    1694 calls)
     fft          :      0.12s CPU      0.13s WALL (      99 calls)
     ffts         :      0.00s CPU      0.00s WALL (       8 calls)
     fftw         :      2.02s CPU      2.11s WALL (   14106 calls)


     PWSCF        :      4.16s CPU      5.78s WALL


   This run was terminated on:   2: 2:42  24Aug2023            

=------------------------------------------------------------------------------=
   JOB DONE.
=------------------------------------------------------------------------------=
