
     Program PWSCF v.7.0 starts on 24Aug2023 at  2: 2: 7 

     This program is part of the open-source Quantum ESPRESSO suite
     for quantum simulation of materials; please cite
         "P. Giannozzi et al., J. Phys.:Condens. Matter 21 395502 (2009);
         "P. Giannozzi et al., J. Phys.:Condens. Matter 29 465901 (2017);
         "P. Giannozzi et al., J. Chem. Phys. 152 154105 (2020);
          URL http://www.quantum-espresso.org", 
     in publications or presentations arising from this work. More details at
     http://www.quantum-espresso.org/quote

     Serial version
     5107 MiB available memory on the printing compute node when the environment starts

     Waiting for input...
     Reading input from standard input

     Current dimensions of program PWSCF are:
     Max number of different atomic species (ntypx) = 10
     Max number of k-points (npk) =  40000
     Max angular momentum in pseudopotentials (lmaxx) =  4

     G-vector sticks info
     --------------------
     sticks:   dense  smooth     PW     G-vecs:    dense   smooth      PW
     Sum         241     241     85                12161    12161    2167

     Using Slab Decomposition



     bravais-lattice index     =            4
     lattice parameter (alat)  =       4.6531  a.u.
     unit-cell volume          =     354.3310 (a.u.)^3
     number of atoms/cell      =            2
     number of atomic types    =            1
     number of electrons       =         8.00
     number of Kohn-Sham states=            8
     kinetic-energy cutoff     =      40.0000  Ry
     charge density cutoff     =     160.0000  Ry
     scf convergence threshold =      1.0E-06
     mixing beta               =       0.7000
     number of iterations used =            8  plain     mixing
     Exchange-correlation= PBE
                           (   1   4   3   4   0   0   0)

     celldm(1)=   4.653073  celldm(2)=   0.000000  celldm(3)=   4.061244
     celldm(4)=   0.000000  celldm(5)=   0.000000  celldm(6)=   0.000000

     crystal axes: (cart. coord. in units of alat)
               a(1) = (   1.000000   0.000000   0.000000 )  
               a(2) = (  -0.500000   0.866025   0.000000 )  
               a(3) = (   0.000000   0.000000   4.061244 )  

     reciprocal axes: (cart. coord. in units 2 pi/alat)
               b(1) = (  1.000000  0.577350 -0.000000 )  
               b(2) = (  0.000000  1.154701  0.000000 )  
               b(3) = (  0.000000 -0.000000  0.246230 )  


     PseudoPot. # 1 for C  read from file:
     ../pseudo/C.pbe-n-rrkjus_psl.0.1.UPF
     MD5 check sum: 96a6a315177d77e6c95bf6fd3870f9e3
     Pseudo is Ultrasoft + core correction, Zval =  4.0
     Generated using &quot;atomic&quot; code by A. Dal Corso  v.6.3MaX
     Using radial grid of 1073 points,  4 beta functions with: 
                l(1) =   0
                l(2) =   0
                l(3) =   1
                l(4) =   1
     Q(r) pseudized with 0 coefficients 


     atomic species   valence    mass     pseudopotential
        C              4.00    12.01070     C ( 1.00)

     24 Sym. Ops., with inversion, found



   Cartesian axes

     site n.     atom                  positions (alat units)
         1           C   tau(   1) = (   0.0000000   0.5773503   2.0306218  )
         2           C   tau(   2) = (   0.5000000   0.2886751   2.0306218  )

     number of k points=     5  Marzari-Vanderbilt smearing, width (Ry)=  0.0200
                       cart. coord. in units 2pi/alat
        k(    1) = (   0.0000000   0.0000000   0.0000000), wk =   0.0800000
        k(    2) = (   0.0000000   0.2309401   0.0000000), wk =   0.4800000
        k(    3) = (   0.0000000   0.4618802   0.0000000), wk =   0.4800000
        k(    4) = (   0.2000000   0.3464102   0.0000000), wk =   0.4800000
        k(    5) = (   0.2000000   0.5773503   0.0000000), wk =   0.4800000

     Dense  grid:    12161 G-vectors     FFT dimensions: (  20,  20,  80)

     Estimated max dynamical RAM per process >      17.37 MB

     Check: negative core charge=   -0.000021

     Initial potential from superposition of free atoms

     starting charge       7.9999, renormalised to       8.0000

     negative rho (up, down):  1.518E-05 0.000E+00
     Starting wfcs are    8 randomized atomic wfcs

     total cpu time spent up to now is        0.4 secs

     Self-consistent Calculation

     iteration #  1     ecut=    40.00 Ry     beta= 0.70
     Davidson diagonalization with overlap
     ethr =  1.00E-02,  avg # of iterations =  7.2

     negative rho (up, down):  4.368E-06 0.000E+00

     total cpu time spent up to now is        0.6 secs

     total energy              =     -23.85082204 Ry
     estimated scf accuracy    <       0.09248237 Ry

     iteration #  2     ecut=    40.00 Ry     beta= 0.70
     Davidson diagonalization with overlap
     ethr =  1.16E-03,  avg # of iterations =  7.8

     negative rho (up, down):  3.976E-04 0.000E+00

     total cpu time spent up to now is        0.7 secs

     total energy              =     -23.89943851 Ry
     estimated scf accuracy    <       0.02178839 Ry

     iteration #  3     ecut=    40.00 Ry     beta= 0.70
     Davidson diagonalization with overlap
     ethr =  2.72E-04,  avg # of iterations =  9.4

     negative rho (up, down):  1.691E-04 0.000E+00

     total cpu time spent up to now is        0.9 secs

     total energy              =     -23.90618508 Ry
     estimated scf accuracy    <       0.01568301 Ry

     iteration #  4     ecut=    40.00 Ry     beta= 0.70
     Davidson diagonalization with overlap
     ethr =  1.96E-04,  avg # of iterations =  1.8

     negative rho (up, down):  2.673E-04 0.000E+00

     total cpu time spent up to now is        1.0 secs

     total energy              =     -23.90604021 Ry
     estimated scf accuracy    <       0.00209502 Ry

     iteration #  5     ecut=    40.00 Ry     beta= 0.70
     Davidson diagonalization with overlap
     ethr =  2.62E-05,  avg # of iterations =  8.0

     negative rho (up, down):  2.087E-04 0.000E+00

     total cpu time spent up to now is        1.1 secs

     total energy              =     -23.90750759 Ry
     estimated scf accuracy    <       0.00097480 Ry

     iteration #  6     ecut=    40.00 Ry     beta= 0.70
     Davidson diagonalization with overlap
     ethr =  1.22E-05,  avg # of iterations =  2.0

     negative rho (up, down):  1.854E-04 0.000E+00

     total cpu time spent up to now is        1.2 secs

     total energy              =     -23.90758034 Ry
     estimated scf accuracy    <       0.00008819 Ry

     iteration #  7     ecut=    40.00 Ry     beta= 0.70
     Davidson diagonalization with overlap
     c_bands:  1 eigenvalues not converged
     ethr =  1.10E-06,  avg # of iterations = 11.0

     negative rho (up, down):  1.963E-04 0.000E+00

     total cpu time spent up to now is        1.4 secs

     total energy              =     -23.90764413 Ry
     estimated scf accuracy    <       0.00024881 Ry

     iteration #  8     ecut=    40.00 Ry     beta= 0.70
     Davidson diagonalization with overlap
     c_bands:  1 eigenvalues not converged
     ethr =  1.10E-06,  avg # of iterations =  5.6

     negative rho (up, down):  2.143E-04 0.000E+00

     total cpu time spent up to now is        1.5 secs

     total energy              =     -23.90764839 Ry
     estimated scf accuracy    <       0.00002353 Ry

     iteration #  9     ecut=    40.00 Ry     beta= 0.70
     Davidson diagonalization with overlap
     c_bands:  1 eigenvalues not converged
     ethr =  2.94E-07,  avg # of iterations =  8.8

     negative rho (up, down):  2.112E-04 0.000E+00

     total cpu time spent up to now is        1.7 secs

     total energy              =     -23.90767448 Ry
     estimated scf accuracy    <       0.00003588 Ry

     iteration # 10     ecut=    40.00 Ry     beta= 0.70
     Davidson diagonalization with overlap
     ethr =  2.94E-07,  avg # of iterations =  1.4

     negative rho (up, down):  2.089E-04 0.000E+00

     total cpu time spent up to now is        1.8 secs

     total energy              =     -23.90767126 Ry
     estimated scf accuracy    <       0.00002062 Ry

     iteration # 11     ecut=    40.00 Ry     beta= 0.70
     Davidson diagonalization with overlap
     ethr =  2.58E-07,  avg # of iterations =  1.0

     negative rho (up, down):  2.062E-04 0.000E+00

     total cpu time spent up to now is        1.8 secs

     total energy              =     -23.90766493 Ry
     estimated scf accuracy    <       0.00001302 Ry

     iteration # 12     ecut=    40.00 Ry     beta= 0.70
     Davidson diagonalization with overlap
     ethr =  1.63E-07,  avg # of iterations =  1.0

     negative rho (up, down):  2.047E-04 0.000E+00

     total cpu time spent up to now is        1.9 secs

     total energy              =     -23.90766501 Ry
     estimated scf accuracy    <       0.00000160 Ry

     iteration # 13     ecut=    40.00 Ry     beta= 0.70
     Davidson diagonalization with overlap
     ethr =  2.00E-08,  avg # of iterations =  4.2

     negative rho (up, down):  2.054E-04 0.000E+00

     total cpu time spent up to now is        2.0 secs

     End of self-consistent calculation

          k = 0.0000 0.0000 0.0000 (  1527 PWs)   bands (ev):

   -19.9811  -8.0834  -3.5022  -3.5022   2.3043   3.9934   4.8865   7.8950

          k = 0.0000 0.2309 0.0000 (  1522 PWs)   bands (ev):

   -19.0397  -6.9635  -6.5966  -4.9947   3.6044   5.2701   6.1532   7.8440

          k = 0.0000 0.4619 0.0000 (  1516 PWs)   bands (ev):

   -16.2947 -11.7899  -6.6560  -3.9297   2.7360   7.0893   7.5125   9.0973

          k = 0.2000 0.3464 0.0000 (  1515 PWs)   bands (ev):

   -17.1939  -9.3959  -7.9357  -4.8286   4.4819   6.1983   7.7634   8.6936

          k = 0.2000 0.5774 0.0000 (  1502 PWs)   bands (ev):

   -14.1194 -13.1474  -9.3132  -1.9411   0.8679  10.4220  10.8811  11.1780

     the Fermi energy is    -0.3983 ev

!    total energy              =     -23.90766675 Ry
     estimated scf accuracy    <       0.00000016 Ry
     smearing contrib. (-TS)   =       0.00000000 Ry
     internal energy E=F+TS    =     -23.90766675 Ry

     The total energy is F=E-TS. E is the sum of the following terms:
     one-electron contribution =     -90.80408897 Ry
     hartree contribution      =      47.24095187 Ry
     xc contribution           =      -8.30757889 Ry
     ewald contribution        =      27.96304925 Ry

     convergence has been achieved in  13 iterations

     Writing all to output data dir ../tmp/gr.save/

     init_run     :      0.30s CPU      0.31s WALL (       1 calls)
     electrons    :      1.30s CPU      1.61s WALL (       1 calls)

     Called by init_run:
     wfcinit      :      0.09s CPU      0.10s WALL (       1 calls)
     potinit      :      0.02s CPU      0.02s WALL (       1 calls)
     hinit0       :      0.18s CPU      0.18s WALL (       1 calls)

     Called by electrons:
     c_bands      :      0.94s CPU      1.17s WALL (      13 calls)
     sum_band     :      0.18s CPU      0.18s WALL (      13 calls)
     v_of_rho     :      0.11s CPU      0.11s WALL (      14 calls)
     newd         :      0.06s CPU      0.06s WALL (      14 calls)
     mix_rho      :      0.02s CPU      0.02s WALL (      13 calls)

     Called by c_bands:
     init_us_2    :      0.02s CPU      0.02s WALL (     135 calls)
     init_us_2:cp :      0.02s CPU      0.02s WALL (     135 calls)
     cegterg      :      0.88s CPU      0.89s WALL (      65 calls)

     Called by *egterg:
     cdiaghg      :      0.02s CPU      0.02s WALL (     411 calls)
     h_psi        :      0.73s CPU      0.74s WALL (     416 calls)
     s_psi        :      0.04s CPU      0.04s WALL (     416 calls)
     g_psi        :      0.01s CPU      0.01s WALL (     346 calls)

     Called by h_psi:
     h_psi:calbec :      0.04s CPU      0.04s WALL (     416 calls)
     vloc_psi     :      0.65s CPU      0.66s WALL (     416 calls)
     add_vuspsi   :      0.04s CPU      0.04s WALL (     416 calls)

     General routines
     calbec       :      0.05s CPU      0.05s WALL (     481 calls)
     fft          :      0.14s CPU      0.14s WALL (     154 calls)
     ffts         :      0.00s CPU      0.00s WALL (      13 calls)
     fftw         :      0.66s CPU      0.67s WALL (    4144 calls)


     PWSCF        :      1.65s CPU      2.37s WALL


   This run was terminated on:   2: 2: 9  24Aug2023            

=------------------------------------------------------------------------------=
   JOB DONE.
=------------------------------------------------------------------------------=
