
     Program PWSCF v.7.0 starts on 24Aug2023 at  1:50: 2 

     This program is part of the open-source Quantum ESPRESSO suite
     for quantum simulation of materials; please cite
         "P. Giannozzi et al., J. Phys.:Condens. Matter 21 395502 (2009);
         "P. Giannozzi et al., J. Phys.:Condens. Matter 29 465901 (2017);
         "P. Giannozzi et al., J. Chem. Phys. 152 154105 (2020);
          URL http://www.quantum-espresso.org", 
     in publications or presentations arising from this work. More details at
     http://www.quantum-espresso.org/quote

     Serial version
     5120 MiB available memory on the printing compute node when the environment starts

     Waiting for input...
     Reading input from standard input

     Current dimensions of program PWSCF are:
     Max number of different atomic species (ntypx) = 10
     Max number of k-points (npk) =  40000
     Max angular momentum in pseudopotentials (lmaxx) =  4

     G-vector sticks info
     --------------------
     sticks:   dense  smooth     PW     G-vecs:    dense   smooth      PW
     Sum         265     265     85                14361    14361    2673

     Using Slab Decomposition



     bravais-lattice index     =            4
     lattice parameter (alat)  =       4.6531  a.u.
     unit-cell volume          =     354.3310 (a.u.)^3
     number of atoms/cell      =            2
     number of atomic types    =            1
     number of electrons       =         8.00
     number of Kohn-Sham states=            8
     kinetic-energy cutoff     =      45.0000  Ry
     charge density cutoff     =     180.0000  Ry
     scf convergence threshold =      1.0E-06
     mixing beta               =       0.7000
     number of iterations used =            8  plain     mixing
     Exchange-correlation= PBE
                           (   1   4   3   4   0   0   0)

     celldm(1)=   4.653073  celldm(2)=   0.000000  celldm(3)=   4.061244
     celldm(4)=   0.000000  celldm(5)=   0.000000  celldm(6)=   0.000000

     crystal axes: (cart. coord. in units of alat)
               a(1) = (   1.000000   0.000000   0.000000 )  
               a(2) = (  -0.500000   0.866025   0.000000 )  
               a(3) = (   0.000000   0.000000   4.061244 )  

     reciprocal axes: (cart. coord. in units 2 pi/alat)
               b(1) = (  1.000000  0.577350 -0.000000 )  
               b(2) = (  0.000000  1.154701  0.000000 )  
               b(3) = (  0.000000 -0.000000  0.246230 )  


     PseudoPot. # 1 for C  read from file:
     ../pseudo/C.pbe-n-rrkjus_psl.0.1.UPF
     MD5 check sum: 96a6a315177d77e6c95bf6fd3870f9e3
     Pseudo is Ultrasoft + core correction, Zval =  4.0
     Generated using &quot;atomic&quot; code by A. Dal Corso  v.6.3MaX
     Using radial grid of 1073 points,  4 beta functions with: 
                l(1) =   0
                l(2) =   0
                l(3) =   1
                l(4) =   1
     Q(r) pseudized with 0 coefficients 


     atomic species   valence    mass     pseudopotential
        C              4.00    12.01070     C ( 1.00)

     24 Sym. Ops., with inversion, found



   Cartesian axes

     site n.     atom                  positions (alat units)
         1           C   tau(   1) = (   0.0000000   0.5773503   2.0306218  )
         2           C   tau(   2) = (   0.5000000   0.2886751   2.0306218  )

     number of k points=    19  Marzari-Vanderbilt smearing, width (Ry)=  0.0200
                       cart. coord. in units 2pi/alat
        k(    1) = (   0.0000000   0.0000000   0.0000000), wk =   0.0138889
        k(    2) = (   0.0000000   0.0962250   0.0000000), wk =   0.0833333
        k(    3) = (   0.0000000   0.1924501   0.0000000), wk =   0.0833333
        k(    4) = (   0.0000000   0.2886751   0.0000000), wk =   0.0833333
        k(    5) = (   0.0000000   0.3849002   0.0000000), wk =   0.0833333
        k(    6) = (   0.0000000   0.4811252   0.0000000), wk =   0.0833333
        k(    7) = (   0.0000000  -0.5773503   0.0000000), wk =   0.0416667
        k(    8) = (   0.0833333   0.1443376   0.0000000), wk =   0.0833333
        k(    9) = (   0.0833333   0.2405626   0.0000000), wk =   0.1666667
        k(   10) = (   0.0833333   0.3367877   0.0000000), wk =   0.1666667
        k(   11) = (   0.0833333   0.4330127   0.0000000), wk =   0.1666667
        k(   12) = (   0.0833333   0.5292377   0.0000000), wk =   0.1666667
        k(   13) = (   0.1666667   0.2886751   0.0000000), wk =   0.0833333
        k(   14) = (   0.1666667   0.3849002   0.0000000), wk =   0.1666667
        k(   15) = (   0.1666667   0.4811252   0.0000000), wk =   0.1666667
        k(   16) = (   0.1666667   0.5773503   0.0000000), wk =   0.0833333
        k(   17) = (   0.2500000   0.4330127   0.0000000), wk =   0.0833333
        k(   18) = (   0.2500000   0.5292377   0.0000000), wk =   0.1666667
        k(   19) = (   0.3333333   0.5773503   0.0000000), wk =   0.0277778

     Dense  grid:    14361 G-vectors     FFT dimensions: (  20,  20,  81)

     Estimated max dynamical RAM per process >      23.21 MB

     Check: negative core charge=   -0.000013

     Initial potential from superposition of free atoms

     starting charge       7.9999, renormalised to       8.0000

     negative rho (up, down):  5.489E-05 0.000E+00
     Starting wfcs are    8 randomized atomic wfcs

     total cpu time spent up to now is        0.4 secs

     Self-consistent Calculation

     iteration #  1     ecut=    45.00 Ry     beta= 0.70
     Davidson diagonalization with overlap
     ethr =  1.00E-02,  avg # of iterations =  8.6

     negative rho (up, down):  1.633E-06 0.000E+00

     total cpu time spent up to now is        0.9 secs

     total energy              =     -23.84799158 Ry
     estimated scf accuracy    <       0.09756087 Ry

     iteration #  2     ecut=    45.00 Ry     beta= 0.70
     Davidson diagonalization with overlap
     ethr =  1.22E-03,  avg # of iterations =  4.7

     negative rho (up, down):  1.257E-04 0.000E+00

     total cpu time spent up to now is        1.4 secs

     total energy              =     -23.89610843 Ry
     estimated scf accuracy    <       0.01825027 Ry

     iteration #  3     ecut=    45.00 Ry     beta= 0.70
     Davidson diagonalization with overlap
     c_bands:  1 eigenvalues not converged
     ethr =  2.28E-04,  avg # of iterations = 14.0

     negative rho (up, down):  6.648E-05 0.000E+00

     total cpu time spent up to now is        2.1 secs

     total energy              =     -23.90828417 Ry
     estimated scf accuracy    <       0.00885576 Ry

     iteration #  4     ecut=    45.00 Ry     beta= 0.70
     Davidson diagonalization with overlap
     ethr =  1.11E-04,  avg # of iterations =  3.1

     negative rho (up, down):  1.877E-04 0.000E+00

     total cpu time spent up to now is        2.4 secs

     total energy              =     -23.90799202 Ry
     estimated scf accuracy    <       0.00210662 Ry

     iteration #  5     ecut=    45.00 Ry     beta= 0.70
     Davidson diagonalization with overlap
     ethr =  2.63E-05,  avg # of iterations =  7.6

     negative rho (up, down):  1.156E-04 0.000E+00

     total cpu time spent up to now is        2.9 secs

     total energy              =     -23.90893436 Ry
     estimated scf accuracy    <       0.00110962 Ry

     iteration #  6     ecut=    45.00 Ry     beta= 0.70
     Davidson diagonalization with overlap
     c_bands:  1 eigenvalues not converged
     ethr =  1.39E-05,  avg # of iterations =  3.6

     negative rho (up, down):  1.235E-04 0.000E+00

     total cpu time spent up to now is        3.2 secs

     total energy              =     -23.90912922 Ry
     estimated scf accuracy    <       0.00005868 Ry

     iteration #  7     ecut=    45.00 Ry     beta= 0.70
     Davidson diagonalization with overlap
     c_bands:  1 eigenvalues not converged
     ethr =  7.34E-07,  avg # of iterations =  9.6

     negative rho (up, down):  1.234E-04 0.000E+00

     total cpu time spent up to now is        3.9 secs

     total energy              =     -23.90923155 Ry
     estimated scf accuracy    <       0.00010562 Ry

     iteration #  8     ecut=    45.00 Ry     beta= 0.70
     Davidson diagonalization with overlap
     ethr =  7.34E-07,  avg # of iterations =  1.8

     negative rho (up, down):  1.266E-04 0.000E+00

     total cpu time spent up to now is        4.2 secs

     total energy              =     -23.90923253 Ry
     estimated scf accuracy    <       0.00010267 Ry

     iteration #  9     ecut=    45.00 Ry     beta= 0.70
     Davidson diagonalization with overlap
     ethr =  7.34E-07,  avg # of iterations =  1.1

     negative rho (up, down):  1.076E-04 0.000E+00

     total cpu time spent up to now is        4.5 secs

     total energy              =     -23.90917269 Ry
     estimated scf accuracy    <       0.00009795 Ry

     iteration # 10     ecut=    45.00 Ry     beta= 0.70
     Davidson diagonalization with overlap
     ethr =  7.34E-07,  avg # of iterations =  2.1

     negative rho (up, down):  1.072E-04 0.000E+00

     total cpu time spent up to now is        4.8 secs

     total energy              =     -23.90918278 Ry
     estimated scf accuracy    <       0.00000198 Ry

     iteration # 11     ecut=    45.00 Ry     beta= 0.70
     Davidson diagonalization with overlap
     ethr =  2.48E-08,  avg # of iterations =  5.2

     negative rho (up, down):  1.089E-04 0.000E+00

     total cpu time spent up to now is        5.2 secs

     End of self-consistent calculation

          k = 0.0000 0.0000 0.0000 (  1757 PWs)   bands (ev):

   -19.9886  -8.0884  -3.5111  -3.5111   2.4012   4.0805   4.9840   7.8870

          k = 0.0000 0.0962 0.0000 (  1767 PWs)   bands (ev):

   -19.8245  -7.8918  -4.1606  -3.8502   2.6267   4.3034   5.2042   7.9574

          k = 0.0000 0.1925 0.0000 (  1795 PWs)   bands (ev):

   -19.3338  -7.3074  -5.7967  -4.6444   3.3030   4.9687   5.8654   7.9202

          k = 0.0000 0.2887 0.0000 (  1791 PWs)   bands (ev):

   -18.5224  -7.8948  -6.3543  -5.5260   4.4286   6.0344   6.8822   6.9462

          k = 0.0000 0.3849 0.0000 (  1796 PWs)   bands (ev):

   -17.4023 -10.0991  -6.2610  -5.0829   4.4833   5.9976   7.2978   7.6505

          k = 0.0000 0.4811 0.0000 (  1808 PWs)   bands (ev):

   -16.0041 -12.2017  -6.7349  -3.6564   2.3414   7.0581   8.0270   9.5983

          k = 0.0000-0.5774 0.0000 (  1820 PWs)   bands (ev):

   -14.7338 -13.7148  -6.8976  -2.8092   1.2399   6.9814  10.3951  10.5047

          k = 0.0833 0.1443 0.0000 (  1785 PWs)   bands (ev):

   -19.4971  -7.5012  -5.1928  -4.5290   3.0777   4.7482   5.6456   8.2592

          k = 0.0833 0.2406 0.0000 (  1796 PWs)   bands (ev):

   -18.8461  -6.9016  -6.7313  -5.5287   3.9791   5.6293   6.5283   7.6823

          k = 0.0833 0.3368 0.0000 (  1791 PWs)   bands (ev):

   -17.8801  -8.9752  -6.4164  -5.6125   5.3282   5.5003   6.9797   7.8016

          k = 0.0833 0.4330 0.0000 (  1804 PWs)   bands (ev):

   -16.6180 -11.0997  -7.0522  -4.2294   3.2919   7.1136   7.8909   8.7049

          k = 0.0833 0.5292 0.0000 (  1813 PWs)   bands (ev):

   -15.1349 -13.0450  -7.3811  -2.9164   1.5175   7.7181   9.3489  10.7828

          k = 0.1667 0.2887 0.0000 (  1803 PWs)   bands (ev):

   -18.0405  -8.2304  -6.8931  -5.7918   5.1045   5.9581   6.7215   7.6337

          k = 0.1667 0.3849 0.0000 (  1807 PWs)   bands (ev):

   -16.9312  -9.9586  -7.9503  -4.5356   4.0042   6.6738   8.2134   9.1542

          k = 0.1667 0.4811 0.0000 (  1818 PWs)   bands (ev):

   -15.5531 -11.8722  -8.5261  -3.1050   2.0859   8.6709   9.6175   9.9885

          k = 0.1667 0.5774 0.0000 (  1813 PWs)   bands (ev):

   -14.3127 -13.3134  -8.7109  -2.2095   1.0143   9.5247  10.9929  11.1485

          k = 0.2500 0.4330 0.0000 (  1825 PWs)   bands (ev):

   -15.7013 -10.9917  -9.4375  -3.1894   2.3854   8.4519   9.6709  10.8855

          k = 0.2500 0.5292 0.0000 (  1825 PWs)   bands (ev):

   -14.2758 -12.4163 -10.1451  -1.7998   0.8609  10.4455  10.6106  11.7761

          k = 0.3333 0.5774 0.0000 (  1827 PWs)   bands (ev):

   -13.0554 -13.0554 -11.0477  -0.4402  -0.4402  10.1738  12.3764  12.3770

     the Fermi energy is    -0.4023 ev

!    total energy              =     -23.90919063 Ry
     estimated scf accuracy    <       0.00000043 Ry
     smearing contrib. (-TS)   =      -0.00018232 Ry
     internal energy E=F+TS    =     -23.90900831 Ry

     The total energy is F=E-TS. E is the sum of the following terms:
     one-electron contribution =     -90.80066323 Ry
     hartree contribution      =      47.23486799 Ry
     xc contribution           =      -8.30626202 Ry
     ewald contribution        =      27.96304896 Ry

     convergence has been achieved in  11 iterations

     Writing all to output data dir ../tmp/gr.save/

     init_run     :      0.28s CPU      0.31s WALL (       1 calls)
     electrons    :      3.86s CPU      4.88s WALL (       1 calls)

     Called by init_run:
     wfcinit      :      0.11s CPU      0.12s WALL (       1 calls)
     potinit      :      0.02s CPU      0.02s WALL (       1 calls)
     hinit0       :      0.15s CPU      0.15s WALL (       1 calls)

     Called by electrons:
     c_bands      :      3.28s CPU      4.12s WALL (      11 calls)
     sum_band     :      0.41s CPU      0.42s WALL (      11 calls)
     v_of_rho     :      0.10s CPU      0.10s WALL (      12 calls)
     newd         :      0.06s CPU      0.06s WALL (      12 calls)
     mix_rho      :      0.02s CPU      0.02s WALL (      11 calls)

     Called by c_bands:
     init_us_2    :      0.07s CPU      0.08s WALL (     437 calls)
     init_us_2:cp :      0.07s CPU      0.08s WALL (     437 calls)
     cegterg      :      3.09s CPU      3.24s WALL (     209 calls)

     Called by *egterg:
     cdiaghg      :      0.06s CPU      0.06s WALL (    1375 calls)
     h_psi        :      2.28s CPU      2.40s WALL (    1394 calls)
     s_psi        :      0.14s CPU      0.15s WALL (    1394 calls)
     g_psi        :      0.02s CPU      0.02s WALL (    1166 calls)

     Called by h_psi:
     h_psi:calbec :      0.15s CPU      0.15s WALL (    1394 calls)
     vloc_psi     :      1.98s CPU      2.08s WALL (    1394 calls)
     add_vuspsi   :      0.14s CPU      0.15s WALL (    1394 calls)

     General routines
     calbec       :      0.18s CPU      0.19s WALL (    1603 calls)
     fft          :      0.10s CPU      0.10s WALL (     132 calls)
     ffts         :      0.00s CPU      0.00s WALL (      11 calls)
     fftw         :      2.00s CPU      2.10s WALL (   14086 calls)


     PWSCF        :      4.19s CPU      5.75s WALL


   This run was terminated on:   1:50: 8  24Aug2023            

=------------------------------------------------------------------------------=
   JOB DONE.
=------------------------------------------------------------------------------=
