
     Program PWSCF v.7.0 starts on 24Aug2023 at  0:37:37 

     This program is part of the open-source Quantum ESPRESSO suite
     for quantum simulation of materials; please cite
         "P. Giannozzi et al., J. Phys.:Condens. Matter 21 395502 (2009);
         "P. Giannozzi et al., J. Phys.:Condens. Matter 29 465901 (2017);
         "P. Giannozzi et al., J. Chem. Phys. 152 154105 (2020);
          URL http://www.quantum-espresso.org", 
     in publications or presentations arising from this work. More details at
     http://www.quantum-espresso.org/quote

     Serial version
     5472 MiB available memory on the printing compute node when the environment starts

     Waiting for input...
     Reading input from standard input

     Current dimensions of program PWSCF are:
     Max number of different atomic species (ntypx) = 10
     Max number of k-points (npk) =  40000
     Max angular momentum in pseudopotentials (lmaxx) =  4

     G-vector sticks info
     --------------------
     sticks:   dense  smooth     PW     G-vecs:    dense   smooth      PW
     Sum         151     151     55                 5657     5657    1205

     Using Slab Decomposition



     bravais-lattice index     =            4
     lattice parameter (alat)  =       4.6531  a.u.
     unit-cell volume          =     354.3310 (a.u.)^3
     number of atoms/cell      =            2
     number of atomic types    =            1
     number of electrons       =         8.00
     number of Kohn-Sham states=            8
     kinetic-energy cutoff     =      24.0000  Ry
     charge density cutoff     =      96.0000  Ry
     scf convergence threshold =      1.0E-06
     mixing beta               =       0.7000
     number of iterations used =            8  plain     mixing
     Exchange-correlation= PBE
                           (   1   4   3   4   0   0   0)

     celldm(1)=   4.653073  celldm(2)=   0.000000  celldm(3)=   4.061244
     celldm(4)=   0.000000  celldm(5)=   0.000000  celldm(6)=   0.000000

     crystal axes: (cart. coord. in units of alat)
               a(1) = (   1.000000   0.000000   0.000000 )  
               a(2) = (  -0.500000   0.866025   0.000000 )  
               a(3) = (   0.000000   0.000000   4.061244 )  

     reciprocal axes: (cart. coord. in units 2 pi/alat)
               b(1) = (  1.000000  0.577350 -0.000000 )  
               b(2) = (  0.000000  1.154701  0.000000 )  
               b(3) = (  0.000000 -0.000000  0.246230 )  


     PseudoPot. # 1 for C  read from file:
     ../pseudo/C.pbe-n-rrkjus_psl.0.1.UPF
     MD5 check sum: 96a6a315177d77e6c95bf6fd3870f9e3
     Pseudo is Ultrasoft + core correction, Zval =  4.0
     Generated using &quot;atomic&quot; code by A. Dal Corso  v.6.3MaX
     Using radial grid of 1073 points,  4 beta functions with: 
                l(1) =   0
                l(2) =   0
                l(3) =   1
                l(4) =   1
     Q(r) pseudized with 0 coefficients 


     atomic species   valence    mass     pseudopotential
        C              4.00    12.01070     C ( 1.00)

     24 Sym. Ops., with inversion, found



   Cartesian axes

     site n.     atom                  positions (alat units)
         1           C   tau(   1) = (   0.0000000   0.5773503   2.0306218  )
         2           C   tau(   2) = (   0.5000000   0.2886751   2.0306218  )

     number of k points=    19  Marzari-Vanderbilt smearing, width (Ry)=  0.0200
                       cart. coord. in units 2pi/alat
        k(    1) = (   0.0000000   0.0000000   0.0000000), wk =   0.0138889
        k(    2) = (   0.0000000   0.0962250   0.0000000), wk =   0.0833333
        k(    3) = (   0.0000000   0.1924501   0.0000000), wk =   0.0833333
        k(    4) = (   0.0000000   0.2886751   0.0000000), wk =   0.0833333
        k(    5) = (   0.0000000   0.3849002   0.0000000), wk =   0.0833333
        k(    6) = (   0.0000000   0.4811252   0.0000000), wk =   0.0833333
        k(    7) = (   0.0000000  -0.5773503   0.0000000), wk =   0.0416667
        k(    8) = (   0.0833333   0.1443376   0.0000000), wk =   0.0833333
        k(    9) = (   0.0833333   0.2405626   0.0000000), wk =   0.1666667
        k(   10) = (   0.0833333   0.3367877   0.0000000), wk =   0.1666667
        k(   11) = (   0.0833333   0.4330127   0.0000000), wk =   0.1666667
        k(   12) = (   0.0833333   0.5292377   0.0000000), wk =   0.1666667
        k(   13) = (   0.1666667   0.2886751   0.0000000), wk =   0.0833333
        k(   14) = (   0.1666667   0.3849002   0.0000000), wk =   0.1666667
        k(   15) = (   0.1666667   0.4811252   0.0000000), wk =   0.1666667
        k(   16) = (   0.1666667   0.5773503   0.0000000), wk =   0.0833333
        k(   17) = (   0.2500000   0.4330127   0.0000000), wk =   0.0833333
        k(   18) = (   0.2500000   0.5292377   0.0000000), wk =   0.1666667
        k(   19) = (   0.3333333   0.5773503   0.0000000), wk =   0.0277778

     Dense  grid:     5657 G-vectors     FFT dimensions: (  15,  15,  60)

     Estimated max dynamical RAM per process >       9.28 MB

     Check: negative core charge=   -0.000140

     Initial potential from superposition of free atoms

     starting charge       7.9999, renormalised to       8.0000

     negative rho (up, down):  4.028E-03 0.000E+00
     Starting wfcs are    8 randomized atomic wfcs

     total cpu time spent up to now is        0.3 secs

     Self-consistent Calculation

     iteration #  1     ecut=    24.00 Ry     beta= 0.70
     Davidson diagonalization with overlap
     ethr =  1.00E-02,  avg # of iterations =  8.3

     negative rho (up, down):  7.820E-04 0.000E+00

     total cpu time spent up to now is        0.6 secs

     total energy              =     -23.81536448 Ry
     estimated scf accuracy    <       0.14461982 Ry

     iteration #  2     ecut=    24.00 Ry     beta= 0.70
     Davidson diagonalization with overlap
     ethr =  1.81E-03,  avg # of iterations =  4.2

     negative rho (up, down):  4.428E-04 0.000E+00

     total cpu time spent up to now is        0.8 secs

     total energy              =     -23.82601552 Ry
     estimated scf accuracy    <       0.00447909 Ry

     iteration #  3     ecut=    24.00 Ry     beta= 0.70
     Davidson diagonalization with overlap
     ethr =  5.60E-05,  avg # of iterations = 11.6

     negative rho (up, down):  6.080E-04 0.000E+00

     total cpu time spent up to now is        1.0 secs

     total energy              =     -23.82855155 Ry
     estimated scf accuracy    <       0.00070462 Ry

     iteration #  4     ecut=    24.00 Ry     beta= 0.70
     Davidson diagonalization with overlap
     ethr =  8.81E-06,  avg # of iterations =  3.9

     negative rho (up, down):  5.926E-04 0.000E+00

     total cpu time spent up to now is        1.3 secs

     total energy              =     -23.82849011 Ry
     estimated scf accuracy    <       0.00090856 Ry

     iteration #  5     ecut=    24.00 Ry     beta= 0.70
     Davidson diagonalization with overlap
     ethr =  8.81E-06,  avg # of iterations =  2.4

     negative rho (up, down):  5.852E-04 0.000E+00

     total cpu time spent up to now is        1.4 secs

     total energy              =     -23.82860896 Ry
     estimated scf accuracy    <       0.00000354 Ry

     iteration #  6     ecut=    24.00 Ry     beta= 0.70
     Davidson diagonalization with overlap
     ethr =  4.42E-08,  avg # of iterations =  4.8

     negative rho (up, down):  5.920E-04 0.000E+00

     total cpu time spent up to now is        1.6 secs

     total energy              =     -23.82861716 Ry
     estimated scf accuracy    <       0.00000304 Ry

     iteration #  7     ecut=    24.00 Ry     beta= 0.70
     Davidson diagonalization with overlap
     ethr =  3.80E-08,  avg # of iterations =  1.5

     negative rho (up, down):  5.983E-04 0.000E+00

     total cpu time spent up to now is        1.8 secs

     End of self-consistent calculation

          k = 0.0000 0.0000 0.0000 (   713 PWs)   bands (ev):

   -20.2193  -8.0863  -3.4881  -3.4881   1.6645   3.3893   4.3586   8.0057

          k = 0.0000 0.0962 0.0000 (   725 PWs)   bands (ev):

   -20.0537  -7.9037  -4.2012  -3.8848   1.8917   3.6114   4.5796   8.0642

          k = 0.0000 0.1925 0.0000 (   708 PWs)   bands (ev):

   -19.5561  -7.2915  -5.8178  -4.6718   2.5733   4.2845   5.2445   7.9994

          k = 0.0000 0.2887 0.0000 (   708 PWs)   bands (ev):

   -18.7338  -7.9705  -6.3356  -5.5527   3.7086   5.3812   6.3475   7.0228

          k = 0.0000 0.3849 0.0000 (   700 PWs)   bands (ev):

   -17.5933 -10.1758  -6.2806  -5.0758   4.6123   5.2959   6.9901   7.1982

          k = 0.0000 0.4811 0.0000 (   704 PWs)   bands (ev):

   -16.1830 -12.3176  -6.7553  -3.6168   2.4166   6.9045   7.3367   8.9599

          k = 0.0000-0.5774 0.0000 (   702 PWs)   bands (ev):

   -14.9144 -13.8182  -6.9241  -2.7585   1.2819   6.8139   9.7952   9.8079

          k = 0.0833 0.1443 0.0000 (   711 PWs)   bands (ev):

   -19.7218  -7.4918  -5.2183  -4.5492   2.3462   4.0610   5.0234   8.3875

          k = 0.0833 0.2406 0.0000 (   711 PWs)   bands (ev):

   -19.0614  -6.9814  -6.7138  -5.5545   3.2548   4.9504   5.9103   7.8783

          k = 0.0833 0.3368 0.0000 (   705 PWs)   bands (ev):

   -18.0815  -9.0609  -6.4307  -5.5899   4.6162   5.6141   6.3384   7.2303

          k = 0.0833 0.4330 0.0000 (   697 PWs)   bands (ev):

   -16.8028 -11.1958  -7.0619  -4.1942   3.3944   6.4264   7.7799   8.0609

          k = 0.0833 0.5292 0.0000 (   698 PWs)   bands (ev):

   -15.3040 -13.1603  -7.3964  -2.8602   1.5819   7.5841   8.6820  10.1960

          k = 0.1667 0.2887 0.0000 (   715 PWs)   bands (ev):

   -18.2455  -8.3254  -6.9420  -5.7763   4.3895   6.0518   6.1061   7.0187

          k = 0.1667 0.3849 0.0000 (   710 PWs)   bands (ev):

   -17.1240 -10.0610  -8.0138  -4.4938   4.1163   5.9744   7.5721   8.5553

          k = 0.1667 0.4811 0.0000 (   698 PWs)   bands (ev):

   -15.7271 -11.9789  -8.5844  -3.0457   2.1888   8.0031   9.4276   9.5446

          k = 0.1667 0.5774 0.0000 (   686 PWs)   bands (ev):

   -14.4793 -13.4061  -8.7609  -2.1355   1.1173   9.4651  10.4372  10.4666

          k = 0.2500 0.4330 0.0000 (   704 PWs)   bands (ev):

   -15.8822 -11.1061  -9.5027  -3.1378   2.4979   7.7767   9.1267  10.2898

          k = 0.2500 0.5292 0.0000 (   691 PWs)   bands (ev):

   -14.4353 -12.5246 -10.2108  -1.7267   0.9691   9.9999  10.1873  11.8033

          k = 0.3333 0.5774 0.0000 (   690 PWs)   bands (ev):

   -13.2000 -13.2000 -11.0954  -0.3293  -0.3293   9.9756  12.1304  12.1304

     the Fermi energy is    -0.2914 ev

!    total energy              =     -23.82861716 Ry
     estimated scf accuracy    <       0.00000029 Ry
     smearing contrib. (-TS)   =      -0.00018232 Ry
     internal energy E=F+TS    =     -23.82843484 Ry

     The total energy is F=E-TS. E is the sum of the following terms:
     one-electron contribution =     -90.62083455 Ry
     hartree contribution      =      47.11433061 Ry
     xc contribution           =      -8.28498016 Ry
     ewald contribution        =      27.96304927 Ry

     convergence has been achieved in   7 iterations

     Writing all to output data dir ../tmp/gr.save/

     init_run     :      0.19s CPU      0.21s WALL (       1 calls)
     electrons    :      0.99s CPU      1.44s WALL (       1 calls)

     Called by init_run:
     wfcinit      :      0.06s CPU      0.07s WALL (       1 calls)
     potinit      :      0.01s CPU      0.01s WALL (       1 calls)
     hinit0       :      0.12s CPU      0.12s WALL (       1 calls)

     Called by electrons:
     c_bands      :      0.83s CPU      1.24s WALL (       7 calls)
     sum_band     :      0.11s CPU      0.11s WALL (       7 calls)
     v_of_rho     :      0.03s CPU      0.03s WALL (       8 calls)
     newd         :      0.02s CPU      0.02s WALL (       8 calls)
     mix_rho      :      0.00s CPU      0.00s WALL (       7 calls)

     Called by c_bands:
     init_us_2    :      0.02s CPU      0.02s WALL (     285 calls)
     init_us_2:cp :      0.02s CPU      0.02s WALL (     285 calls)
     cegterg      :      0.76s CPU      0.80s WALL (     133 calls)

     Called by *egterg:
     cdiaghg      :      0.03s CPU      0.04s WALL (     830 calls)
     h_psi        :      0.59s CPU      0.62s WALL (     849 calls)
     s_psi        :      0.03s CPU      0.03s WALL (     849 calls)
     g_psi        :      0.01s CPU      0.01s WALL (     697 calls)

     Called by h_psi:
     h_psi:calbec :      0.03s CPU      0.04s WALL (     849 calls)
     vloc_psi     :      0.52s CPU      0.54s WALL (     849 calls)
     add_vuspsi   :      0.03s CPU      0.03s WALL (     849 calls)

     General routines
     calbec       :      0.04s CPU      0.04s WALL (     982 calls)
     fft          :      0.07s CPU      0.07s WALL (      88 calls)
     ffts         :      0.00s CPU      0.00s WALL (       7 calls)
     fftw         :      0.53s CPU      0.55s WALL (    8768 calls)


     PWSCF        :      1.21s CPU      2.26s WALL


   This run was terminated on:   0:37:39  24Aug2023            

=------------------------------------------------------------------------------=
   JOB DONE.
=------------------------------------------------------------------------------=
