
     Program PWSCF v.7.0 starts on 24Aug2023 at  1:51:54 

     This program is part of the open-source Quantum ESPRESSO suite
     for quantum simulation of materials; please cite
         "P. Giannozzi et al., J. Phys.:Condens. Matter 21 395502 (2009);
         "P. Giannozzi et al., J. Phys.:Condens. Matter 29 465901 (2017);
         "P. Giannozzi et al., J. Chem. Phys. 152 154105 (2020);
          URL http://www.quantum-espresso.org", 
     in publications or presentations arising from this work. More details at
     http://www.quantum-espresso.org/quote

     Serial version
     5123 MiB available memory on the printing compute node when the environment starts

     Waiting for input...
     Reading input from standard input

     Current dimensions of program PWSCF are:
     Max number of different atomic species (ntypx) = 10
     Max number of k-points (npk) =  40000
     Max angular momentum in pseudopotentials (lmaxx) =  4

     G-vector sticks info
     --------------------
     sticks:   dense  smooth     PW     G-vecs:    dense   smooth      PW
     Sum         475     475    151                34193    34193    5753

     Using Slab Decomposition



     bravais-lattice index     =            4
     lattice parameter (alat)  =       4.6531  a.u.
     unit-cell volume          =     354.3310 (a.u.)^3
     number of atoms/cell      =            2
     number of atomic types    =            1
     number of electrons       =         8.00
     number of Kohn-Sham states=            8
     kinetic-energy cutoff     =      80.0000  Ry
     charge density cutoff     =     320.0000  Ry
     scf convergence threshold =      1.0E-06
     mixing beta               =       0.7000
     number of iterations used =            8  plain     mixing
     Exchange-correlation= PBE
                           (   1   4   3   4   0   0   0)

     celldm(1)=   4.653073  celldm(2)=   0.000000  celldm(3)=   4.061244
     celldm(4)=   0.000000  celldm(5)=   0.000000  celldm(6)=   0.000000

     crystal axes: (cart. coord. in units of alat)
               a(1) = (   1.000000   0.000000   0.000000 )  
               a(2) = (  -0.500000   0.866025   0.000000 )  
               a(3) = (   0.000000   0.000000   4.061244 )  

     reciprocal axes: (cart. coord. in units 2 pi/alat)
               b(1) = (  1.000000  0.577350 -0.000000 )  
               b(2) = (  0.000000  1.154701  0.000000 )  
               b(3) = (  0.000000 -0.000000  0.246230 )  


     PseudoPot. # 1 for C  read from file:
     ../pseudo/C.pbe-n-rrkjus_psl.0.1.UPF
     MD5 check sum: 96a6a315177d77e6c95bf6fd3870f9e3
     Pseudo is Ultrasoft + core correction, Zval =  4.0
     Generated using &quot;atomic&quot; code by A. Dal Corso  v.6.3MaX
     Using radial grid of 1073 points,  4 beta functions with: 
                l(1) =   0
                l(2) =   0
                l(3) =   1
                l(4) =   1
     Q(r) pseudized with 0 coefficients 


     atomic species   valence    mass     pseudopotential
        C              4.00    12.01070     C ( 1.00)

     24 Sym. Ops., with inversion, found



   Cartesian axes

     site n.     atom                  positions (alat units)
         1           C   tau(   1) = (   0.0000000   0.5773503   2.0306218  )
         2           C   tau(   2) = (   0.5000000   0.2886751   2.0306218  )

     number of k points=    19  Marzari-Vanderbilt smearing, width (Ry)=  0.0200
                       cart. coord. in units 2pi/alat
        k(    1) = (   0.0000000   0.0000000   0.0000000), wk =   0.0138889
        k(    2) = (   0.0000000   0.0962250   0.0000000), wk =   0.0833333
        k(    3) = (   0.0000000   0.1924501   0.0000000), wk =   0.0833333
        k(    4) = (   0.0000000   0.2886751   0.0000000), wk =   0.0833333
        k(    5) = (   0.0000000   0.3849002   0.0000000), wk =   0.0833333
        k(    6) = (   0.0000000   0.4811252   0.0000000), wk =   0.0833333
        k(    7) = (   0.0000000  -0.5773503   0.0000000), wk =   0.0416667
        k(    8) = (   0.0833333   0.1443376   0.0000000), wk =   0.0833333
        k(    9) = (   0.0833333   0.2405626   0.0000000), wk =   0.1666667
        k(   10) = (   0.0833333   0.3367877   0.0000000), wk =   0.1666667
        k(   11) = (   0.0833333   0.4330127   0.0000000), wk =   0.1666667
        k(   12) = (   0.0833333   0.5292377   0.0000000), wk =   0.1666667
        k(   13) = (   0.1666667   0.2886751   0.0000000), wk =   0.0833333
        k(   14) = (   0.1666667   0.3849002   0.0000000), wk =   0.1666667
        k(   15) = (   0.1666667   0.4811252   0.0000000), wk =   0.1666667
        k(   16) = (   0.1666667   0.5773503   0.0000000), wk =   0.0833333
        k(   17) = (   0.2500000   0.4330127   0.0000000), wk =   0.0833333
        k(   18) = (   0.2500000   0.5292377   0.0000000), wk =   0.1666667
        k(   19) = (   0.3333333   0.5773503   0.0000000), wk =   0.0277778

     Dense  grid:    34193 G-vectors     FFT dimensions: (  27,  27, 108)

     Estimated max dynamical RAM per process >      55.01 MB

     Check: negative core charge=   -0.000001

     Initial potential from superposition of free atoms

     starting charge       7.9999, renormalised to       8.0000

     negative rho (up, down):  5.988E-06 0.000E+00
     Starting wfcs are    8 randomized atomic wfcs

     total cpu time spent up to now is        0.8 secs

     Self-consistent Calculation

     iteration #  1     ecut=    80.00 Ry     beta= 0.70
     Davidson diagonalization with overlap
     ethr =  1.00E-02,  avg # of iterations =  7.2

     Threshold (ethr) on eigenvalues was too large:
     Diagonalizing with lowered threshold

     Davidson diagonalization with overlap
     ethr =  8.13E-04,  avg # of iterations =  7.2

     total cpu time spent up to now is        3.7 secs

     total energy              =     -23.88256291 Ry
     estimated scf accuracy    <       0.19028485 Ry

     iteration #  2     ecut=    80.00 Ry     beta= 0.70
     Davidson diagonalization with overlap
     ethr =  2.38E-03,  avg # of iterations =  2.2

     total cpu time spent up to now is        4.6 secs

     total energy              =     -23.89255277 Ry
     estimated scf accuracy    <       0.00610749 Ry

     iteration #  3     ecut=    80.00 Ry     beta= 0.70
     Davidson diagonalization with overlap
     c_bands:  2 eigenvalues not converged
     c_bands:  3 eigenvalues not converged
     c_bands:  3 eigenvalues not converged
     c_bands:  2 eigenvalues not converged
     c_bands:  1 eigenvalues not converged
     c_bands:  1 eigenvalues not converged
     c_bands:  3 eigenvalues not converged
     c_bands:  1 eigenvalues not converged
     c_bands:  2 eigenvalues not converged
     c_bands:  1 eigenvalues not converged
     c_bands:  1 eigenvalues not converged
     c_bands:  1 eigenvalues not converged
     c_bands:  2 eigenvalues not converged
     ethr =  7.63E-05,  avg # of iterations = 19.3

     total cpu time spent up to now is        7.8 secs

     total energy              =     -23.91384998 Ry
     estimated scf accuracy    <       0.00755799 Ry

     iteration #  4     ecut=    80.00 Ry     beta= 0.70
     Davidson diagonalization with overlap
     ethr =  7.63E-05,  avg # of iterations =  3.9

     total cpu time spent up to now is        8.7 secs

     total energy              =     -23.92179480 Ry
     estimated scf accuracy    <       0.00930131 Ry

     iteration #  5     ecut=    80.00 Ry     beta= 0.70
     Davidson diagonalization with overlap
     ethr =  7.63E-05,  avg # of iterations =  1.5

     total cpu time spent up to now is        9.5 secs

     total energy              =     -23.93129036 Ry
     estimated scf accuracy    <       0.02332033 Ry

     iteration #  6     ecut=    80.00 Ry     beta= 0.70
     Davidson diagonalization with overlap
     ethr =  7.63E-05,  avg # of iterations =  2.3

     total cpu time spent up to now is       10.3 secs

     total energy              =     -23.92343916 Ry
     estimated scf accuracy    <       0.04593430 Ry

     iteration #  7     ecut=    80.00 Ry     beta= 0.70
     Davidson diagonalization with overlap
     ethr =  7.63E-05,  avg # of iterations =  1.5

     total cpu time spent up to now is       11.1 secs

     total energy              =     -23.91755506 Ry
     estimated scf accuracy    <       0.03371645 Ry

     iteration #  8     ecut=    80.00 Ry     beta= 0.70
     Davidson diagonalization with overlap
     ethr =  7.63E-05,  avg # of iterations =  1.2

     total cpu time spent up to now is       11.8 secs

     total energy              =     -23.91966173 Ry
     estimated scf accuracy    <       0.02078190 Ry

     iteration #  9     ecut=    80.00 Ry     beta= 0.70
     Davidson diagonalization with overlap
     ethr =  7.63E-05,  avg # of iterations =  1.1

     total cpu time spent up to now is       12.6 secs

     total energy              =     -23.91595732 Ry
     estimated scf accuracy    <       0.02422308 Ry

     iteration # 10     ecut=    80.00 Ry     beta= 0.70
     Davidson diagonalization with overlap
     ethr =  7.63E-05,  avg # of iterations =  1.0

     negative rho (up, down):  1.955E-08 0.000E+00

     total cpu time spent up to now is       13.3 secs

     total energy              =     -23.91218282 Ry
     estimated scf accuracy    <       0.01658254 Ry

     iteration # 11     ecut=    80.00 Ry     beta= 0.70
     Davidson diagonalization with overlap
     ethr =  7.63E-05,  avg # of iterations =  1.3

     negative rho (up, down):  3.470E-08 0.000E+00

     total cpu time spent up to now is       14.1 secs

     total energy              =     -23.91171826 Ry
     estimated scf accuracy    <       0.00802530 Ry

     iteration # 12     ecut=    80.00 Ry     beta= 0.70
     Davidson diagonalization with overlap
     ethr =  7.63E-05,  avg # of iterations =  1.1

     negative rho (up, down):  3.583E-05 0.000E+00

     total cpu time spent up to now is       14.8 secs

     total energy              =     -23.90794669 Ry
     estimated scf accuracy    <       0.00641131 Ry

     iteration # 13     ecut=    80.00 Ry     beta= 0.70
     Davidson diagonalization with overlap
     ethr =  7.63E-05,  avg # of iterations =  2.4

     negative rho (up, down):  2.326E-05 0.000E+00

     total cpu time spent up to now is       15.7 secs

     total energy              =     -23.90925358 Ry
     estimated scf accuracy    <       0.00006129 Ry

     iteration # 14     ecut=    80.00 Ry     beta= 0.70
     Davidson diagonalization with overlap
     c_bands:  1 eigenvalues not converged
     c_bands:  1 eigenvalues not converged
     c_bands:  2 eigenvalues not converged
     c_bands:  1 eigenvalues not converged
     c_bands:  1 eigenvalues not converged
     c_bands:  1 eigenvalues not converged
     c_bands:  1 eigenvalues not converged
     c_bands:  1 eigenvalues not converged
     c_bands:  3 eigenvalues not converged
     c_bands:  1 eigenvalues not converged
     ethr =  7.66E-07,  avg # of iterations = 18.2

     negative rho (up, down):  2.207E-05 0.000E+00

     total cpu time spent up to now is       19.4 secs

     total energy              =     -23.91076837 Ry
     estimated scf accuracy    <       0.00101567 Ry

     iteration # 15     ecut=    80.00 Ry     beta= 0.70
     Davidson diagonalization with overlap
     c_bands:  1 eigenvalues not converged
     ethr =  7.66E-07,  avg # of iterations =  6.5

     negative rho (up, down):  2.274E-05 0.000E+00

     total cpu time spent up to now is       20.4 secs

     total energy              =     -23.91079051 Ry
     estimated scf accuracy    <       0.00114859 Ry

     iteration # 16     ecut=    80.00 Ry     beta= 0.70
     Davidson diagonalization with overlap
     ethr =  7.66E-07,  avg # of iterations =  1.2

     negative rho (up, down):  3.186E-05 0.000E+00

     total cpu time spent up to now is       21.2 secs

     total energy              =     -23.91107880 Ry
     estimated scf accuracy    <       0.00119916 Ry

     iteration # 17     ecut=    80.00 Ry     beta= 0.70
     Davidson diagonalization with overlap
     ethr =  7.66E-07,  avg # of iterations =  2.3

     negative rho (up, down):  3.259E-05 0.000E+00

     total cpu time spent up to now is       22.0 secs

     total energy              =     -23.91111050 Ry
     estimated scf accuracy    <       0.00176727 Ry

     iteration # 18     ecut=    80.00 Ry     beta= 0.70
     Davidson diagonalization with overlap
     ethr =  7.66E-07,  avg # of iterations =  1.3

     negative rho (up, down):  5.892E-05 0.000E+00

     total cpu time spent up to now is       22.7 secs

     total energy              =     -23.91219472 Ry
     estimated scf accuracy    <       0.00183558 Ry

     iteration # 19     ecut=    80.00 Ry     beta= 0.70
     Davidson diagonalization with overlap
     c_bands:  1 eigenvalues not converged
     c_bands:  1 eigenvalues not converged
     ethr =  7.66E-07,  avg # of iterations =  9.5

     negative rho (up, down):  1.211E-04 0.000E+00

     total cpu time spent up to now is       24.4 secs

     total energy              =     -23.91404868 Ry
     estimated scf accuracy    <       0.00459939 Ry

     iteration # 20     ecut=    80.00 Ry     beta= 0.70
     Davidson diagonalization with overlap
     ethr =  7.66E-07,  avg # of iterations =  8.7

     negative rho (up, down):  7.453E-06 0.000E+00

     total cpu time spent up to now is       26.1 secs

     total energy              =     -23.90839257 Ry
     estimated scf accuracy    <       0.00865798 Ry

     iteration # 21     ecut=    80.00 Ry     beta= 0.70
     Davidson diagonalization with overlap
     c_bands:  1 eigenvalues not converged
     c_bands:  1 eigenvalues not converged
     c_bands:  1 eigenvalues not converged
     c_bands:  1 eigenvalues not converged
     ethr =  7.66E-07,  avg # of iterations = 15.2

     negative rho (up, down):  6.699E-06 0.000E+00

     total cpu time spent up to now is       29.3 secs

     total energy              =     -23.91028971 Ry
     estimated scf accuracy    <       0.00078026 Ry

     iteration # 22     ecut=    80.00 Ry     beta= 0.70
     Davidson diagonalization with overlap
     ethr =  7.66E-07,  avg # of iterations =  4.1

     negative rho (up, down):  6.806E-06 0.000E+00

     total cpu time spent up to now is       30.2 secs

     total energy              =     -23.91019641 Ry
     estimated scf accuracy    <       0.00023712 Ry

     iteration # 23     ecut=    80.00 Ry     beta= 0.70
     Davidson diagonalization with overlap
     ethr =  7.66E-07,  avg # of iterations =  4.2

     negative rho (up, down):  7.233E-06 0.000E+00

     total cpu time spent up to now is       31.3 secs

     total energy              =     -23.91024148 Ry
     estimated scf accuracy    <       0.00000912 Ry

     iteration # 24     ecut=    80.00 Ry     beta= 0.70
     Davidson diagonalization with overlap
     ethr =  1.14E-07,  avg # of iterations =  3.6

     negative rho (up, down):  7.834E-06 0.000E+00

     total cpu time spent up to now is       32.2 secs

     total energy              =     -23.91024997 Ry
     estimated scf accuracy    <       0.00000224 Ry

     iteration # 25     ecut=    80.00 Ry     beta= 0.70
     Davidson diagonalization with overlap
     ethr =  2.80E-08,  avg # of iterations =  2.7

     negative rho (up, down):  8.515E-06 0.000E+00

     total cpu time spent up to now is       33.1 secs

     total energy              =     -23.91025052 Ry
     estimated scf accuracy    <       0.00000107 Ry

     iteration # 26     ecut=    80.00 Ry     beta= 0.70
     Davidson diagonalization with overlap
     ethr =  1.34E-08,  avg # of iterations =  2.6

     negative rho (up, down):  8.101E-06 0.000E+00

     total cpu time spent up to now is       33.9 secs

     total energy              =     -23.91025122 Ry
     estimated scf accuracy    <       0.00000103 Ry

     iteration # 27     ecut=    80.00 Ry     beta= 0.70
     Davidson diagonalization with overlap
     ethr =  1.28E-08,  avg # of iterations =  1.7

     negative rho (up, down):  7.321E-06 0.000E+00

     total cpu time spent up to now is       34.7 secs

     total energy              =     -23.91025017 Ry
     estimated scf accuracy    <       0.00000180 Ry

     iteration # 28     ecut=    80.00 Ry     beta= 0.70
     Davidson diagonalization with overlap
     ethr =  1.28E-08,  avg # of iterations =  1.4

     negative rho (up, down):  7.410E-06 0.000E+00

     total cpu time spent up to now is       35.5 secs

     End of self-consistent calculation

          k = 0.0000 0.0000 0.0000 (  4325 PWs)   bands (ev):

   -19.9925  -8.0926  -3.5181  -3.5181   2.6278   4.2427   5.3591   7.8785

          k = 0.0000 0.0962 0.0000 (  4331 PWs)   bands (ev):

   -19.8284  -7.8961  -4.1673  -3.8571   2.8521   4.4648   5.5797   7.9499

          k = 0.0000 0.1925 0.0000 (  4295 PWs)   bands (ev):

   -19.3379  -7.3117  -5.8030  -4.6511   3.5250   5.1282   6.2408   7.9137

          k = 0.0000 0.2887 0.0000 (  4285 PWs)   bands (ev):

   -18.5266  -7.9007  -6.3587  -5.5326   4.6446   6.1775   6.8910   7.2967

          k = 0.0000 0.3849 0.0000 (  4266 PWs)   bands (ev):

   -17.4067 -10.1047  -6.2675  -5.0873   4.4790   6.2021   7.3014   7.8013

          k = 0.0000 0.4811 0.0000 (  4284 PWs)   bands (ev):

   -16.0087 -12.2069  -6.7413  -3.6610   2.3367   7.0519   8.2233   9.7395

          k = 0.0000-0.5774 0.0000 (  4242 PWs)   bands (ev):

   -14.7381 -13.7202  -6.9040  -2.8138   1.2354   6.9748  10.5550  10.6929

          k = 0.0833 0.1443 0.0000 (  4297 PWs)   bands (ev):

   -19.5011  -7.5055  -5.1993  -4.5357   3.3009   4.9079   6.0219   8.2515

          k = 0.0833 0.2406 0.0000 (  4290 PWs)   bands (ev):

   -18.8502  -6.9077  -6.7356  -5.5353   4.1978   5.7863   6.9049   7.6778

          k = 0.0833 0.3368 0.0000 (  4276 PWs)   bands (ev):

   -17.8845  -8.9809  -6.4228  -5.6170   5.4969   5.5394   7.1297   8.0510

          k = 0.0833 0.4330 0.0000 (  4277 PWs)   bands (ev):

   -16.6225 -11.1051  -7.0585  -4.2339   3.2871   7.3069   7.8958   8.8477

          k = 0.0833 0.5292 0.0000 (  4272 PWs)   bands (ev):

   -15.1394 -13.0503  -7.3874  -2.9210   1.5129   7.7117   9.5332  10.9040

          k = 0.1667 0.2887 0.0000 (  4283 PWs)   bands (ev):

   -18.0448  -8.2361  -6.8995  -5.7962   5.3175   5.9529   6.8737   8.0133

          k = 0.1667 0.3849 0.0000 (  4279 PWs)   bands (ev):

   -16.9357  -9.9640  -7.9565  -4.5401   3.9991   6.8773   8.3538   9.5063

          k = 0.1667 0.4811 0.0000 (  4267 PWs)   bands (ev):

   -15.5577 -11.8775  -8.5322  -3.1096   2.0810   8.8553   9.6182  10.0982

          k = 0.1667 0.5774 0.0000 (  4242 PWs)   bands (ev):

   -14.3171 -13.3188  -8.7169  -2.2143   1.0095   9.5182  11.1334  11.2353

          k = 0.2500 0.4330 0.0000 (  4285 PWs)   bands (ev):

   -15.7059 -10.9968  -9.4436  -3.1940   2.3803   8.6410   9.7718  11.2563

          k = 0.2500 0.5292 0.0000 (  4277 PWs)   bands (ev):

   -14.2804 -12.4213 -10.1512  -1.8045   0.8560  10.4664  10.7662  11.7785

          k = 0.3333 0.5774 0.0000 (  4290 PWs)   bands (ev):

   -13.0602 -13.0602 -11.0539  -0.4451  -0.4451  10.1799  12.4229  12.4229

     the Fermi energy is    -0.4072 ev

!    total energy              =     -23.91025033 Ry
     estimated scf accuracy    <       0.00000003 Ry
     smearing contrib. (-TS)   =      -0.00018232 Ry
     internal energy E=F+TS    =     -23.91006800 Ry

     The total energy is F=E-TS. E is the sum of the following terms:
     one-electron contribution =     -90.80659907 Ry
     hartree contribution      =      47.23982583 Ry
     xc contribution           =      -8.30634404 Ry
     ewald contribution        =      27.96304927 Ry

     convergence has been achieved in  28 iterations

     Writing all to output data dir ../tmp/gr.save/

     init_run     :      0.64s CPU      0.65s WALL (       1 calls)
     electrons    :     32.23s CPU     34.80s WALL (       1 calls)

     Called by init_run:
     wfcinit      :      0.33s CPU      0.33s WALL (       1 calls)
     potinit      :      0.04s CPU      0.05s WALL (       1 calls)
     hinit0       :      0.23s CPU      0.23s WALL (       1 calls)

     Called by electrons:
     c_bands      :     27.55s CPU     29.86s WALL (      29 calls)
     sum_band     :      3.52s CPU      3.55s WALL (      29 calls)
     v_of_rho     :      0.63s CPU      0.63s WALL (      29 calls)
     newd         :      0.37s CPU      0.37s WALL (      29 calls)
     mix_rho      :      0.15s CPU      0.15s WALL (      29 calls)

     Called by c_bands:
     init_us_2    :      0.47s CPU      0.48s WALL (    1121 calls)
     init_us_2:cp :      0.47s CPU      0.48s WALL (    1121 calls)
     cegterg      :     26.63s CPU     26.95s WALL (     551 calls)

     Called by *egterg:
     cdiaghg      :      0.17s CPU      0.17s WALL (    3120 calls)
     h_psi        :     21.11s CPU     21.40s WALL (    3158 calls)
     s_psi        :      0.91s CPU      0.92s WALL (    3158 calls)
     g_psi        :      0.15s CPU      0.15s WALL (    2588 calls)

     Called by h_psi:
     h_psi:calbec :      0.99s CPU      1.00s WALL (    3158 calls)
     vloc_psi     :     19.12s CPU     19.40s WALL (    3158 calls)
     add_vuspsi   :      0.91s CPU      0.91s WALL (    3158 calls)

     General routines
     calbec       :      1.25s CPU      1.25s WALL (    3709 calls)
     fft          :      0.40s CPU      0.40s WALL (     320 calls)
     ffts         :      0.03s CPU      0.03s WALL (      29 calls)
     fftw         :     20.04s CPU     20.31s WALL (   36518 calls)


     PWSCF        :     32.95s CPU     36.23s WALL


   This run was terminated on:   1:52:30  24Aug2023            

=------------------------------------------------------------------------------=
   JOB DONE.
=------------------------------------------------------------------------------=
