
     Program PWSCF v.7.0 starts on 24Aug2023 at  1:51:34 

     This program is part of the open-source Quantum ESPRESSO suite
     for quantum simulation of materials; please cite
         "P. Giannozzi et al., J. Phys.:Condens. Matter 21 395502 (2009);
         "P. Giannozzi et al., J. Phys.:Condens. Matter 29 465901 (2017);
         "P. Giannozzi et al., J. Chem. Phys. 152 154105 (2020);
          URL http://www.quantum-espresso.org", 
     in publications or presentations arising from this work. More details at
     http://www.quantum-espresso.org/quote

     Serial version
     5122 MiB available memory on the printing compute node when the environment starts

     Waiting for input...
     Reading input from standard input

     Current dimensions of program PWSCF are:
     Max number of different atomic species (ntypx) = 10
     Max number of k-points (npk) =  40000
     Max angular momentum in pseudopotentials (lmaxx) =  4

     G-vector sticks info
     --------------------
     sticks:   dense  smooth     PW     G-vecs:    dense   smooth      PW
     Sum         439     439    139                31071    31071    5223

     Using Slab Decomposition



     bravais-lattice index     =            4
     lattice parameter (alat)  =       4.6531  a.u.
     unit-cell volume          =     354.3310 (a.u.)^3
     number of atoms/cell      =            2
     number of atomic types    =            1
     number of electrons       =         8.00
     number of Kohn-Sham states=            8
     kinetic-energy cutoff     =      75.0000  Ry
     charge density cutoff     =     300.0000  Ry
     scf convergence threshold =      1.0E-06
     mixing beta               =       0.7000
     number of iterations used =            8  plain     mixing
     Exchange-correlation= PBE
                           (   1   4   3   4   0   0   0)

     celldm(1)=   4.653073  celldm(2)=   0.000000  celldm(3)=   4.061244
     celldm(4)=   0.000000  celldm(5)=   0.000000  celldm(6)=   0.000000

     crystal axes: (cart. coord. in units of alat)
               a(1) = (   1.000000   0.000000   0.000000 )  
               a(2) = (  -0.500000   0.866025   0.000000 )  
               a(3) = (   0.000000   0.000000   4.061244 )  

     reciprocal axes: (cart. coord. in units 2 pi/alat)
               b(1) = (  1.000000  0.577350 -0.000000 )  
               b(2) = (  0.000000  1.154701  0.000000 )  
               b(3) = (  0.000000 -0.000000  0.246230 )  


     PseudoPot. # 1 for C  read from file:
     ../pseudo/C.pbe-n-rrkjus_psl.0.1.UPF
     MD5 check sum: 96a6a315177d77e6c95bf6fd3870f9e3
     Pseudo is Ultrasoft + core correction, Zval =  4.0
     Generated using &quot;atomic&quot; code by A. Dal Corso  v.6.3MaX
     Using radial grid of 1073 points,  4 beta functions with: 
                l(1) =   0
                l(2) =   0
                l(3) =   1
                l(4) =   1
     Q(r) pseudized with 0 coefficients 


     atomic species   valence    mass     pseudopotential
        C              4.00    12.01070     C ( 1.00)

     24 Sym. Ops., with inversion, found



   Cartesian axes

     site n.     atom                  positions (alat units)
         1           C   tau(   1) = (   0.0000000   0.5773503   2.0306218  )
         2           C   tau(   2) = (   0.5000000   0.2886751   2.0306218  )

     number of k points=    19  Marzari-Vanderbilt smearing, width (Ry)=  0.0200
                       cart. coord. in units 2pi/alat
        k(    1) = (   0.0000000   0.0000000   0.0000000), wk =   0.0138889
        k(    2) = (   0.0000000   0.0962250   0.0000000), wk =   0.0833333
        k(    3) = (   0.0000000   0.1924501   0.0000000), wk =   0.0833333
        k(    4) = (   0.0000000   0.2886751   0.0000000), wk =   0.0833333
        k(    5) = (   0.0000000   0.3849002   0.0000000), wk =   0.0833333
        k(    6) = (   0.0000000   0.4811252   0.0000000), wk =   0.0833333
        k(    7) = (   0.0000000  -0.5773503   0.0000000), wk =   0.0416667
        k(    8) = (   0.0833333   0.1443376   0.0000000), wk =   0.0833333
        k(    9) = (   0.0833333   0.2405626   0.0000000), wk =   0.1666667
        k(   10) = (   0.0833333   0.3367877   0.0000000), wk =   0.1666667
        k(   11) = (   0.0833333   0.4330127   0.0000000), wk =   0.1666667
        k(   12) = (   0.0833333   0.5292377   0.0000000), wk =   0.1666667
        k(   13) = (   0.1666667   0.2886751   0.0000000), wk =   0.0833333
        k(   14) = (   0.1666667   0.3849002   0.0000000), wk =   0.1666667
        k(   15) = (   0.1666667   0.4811252   0.0000000), wk =   0.1666667
        k(   16) = (   0.1666667   0.5773503   0.0000000), wk =   0.0833333
        k(   17) = (   0.2500000   0.4330127   0.0000000), wk =   0.0833333
        k(   18) = (   0.2500000   0.5292377   0.0000000), wk =   0.1666667
        k(   19) = (   0.3333333   0.5773503   0.0000000), wk =   0.0277778

     Dense  grid:    31071 G-vectors     FFT dimensions: (  25,  25, 108)

     Estimated max dynamical RAM per process >      49.72 MB

     Check: negative core charge=   -0.000003

     Initial potential from superposition of free atoms

     starting charge       7.9999, renormalised to       8.0000

     negative rho (up, down):  5.790E-06 0.000E+00
     Starting wfcs are    8 randomized atomic wfcs

     total cpu time spent up to now is        0.7 secs

     Self-consistent Calculation

     iteration #  1     ecut=    75.00 Ry     beta= 0.70
     Davidson diagonalization with overlap
     ethr =  1.00E-02,  avg # of iterations =  7.8

     Threshold (ethr) on eigenvalues was too large:
     Diagonalizing with lowered threshold

     Davidson diagonalization with overlap
     ethr =  8.62E-04,  avg # of iterations =  6.8

     negative rho (up, down):  5.029E-08 0.000E+00

     total cpu time spent up to now is        2.7 secs

     total energy              =     -23.88139609 Ry
     estimated scf accuracy    <       0.19435327 Ry

     iteration #  2     ecut=    75.00 Ry     beta= 0.70
     Davidson diagonalization with overlap
     ethr =  2.43E-03,  avg # of iterations =  2.8

     total cpu time spent up to now is        3.3 secs

     total energy              =     -23.89279986 Ry
     estimated scf accuracy    <       0.00569626 Ry

     iteration #  3     ecut=    75.00 Ry     beta= 0.70
     Davidson diagonalization with overlap
     c_bands:  1 eigenvalues not converged
     c_bands:  1 eigenvalues not converged
     c_bands:  1 eigenvalues not converged
     c_bands:  1 eigenvalues not converged
     c_bands:  1 eigenvalues not converged
     c_bands:  1 eigenvalues not converged
     ethr =  7.12E-05,  avg # of iterations = 17.7

     total cpu time spent up to now is        5.7 secs

     total energy              =     -23.91512896 Ry
     estimated scf accuracy    <       0.00757996 Ry

     iteration #  4     ecut=    75.00 Ry     beta= 0.70
     Davidson diagonalization with overlap
     ethr =  7.12E-05,  avg # of iterations =  2.1

     total cpu time spent up to now is        6.4 secs

     total energy              =     -23.91262224 Ry
     estimated scf accuracy    <       0.01149678 Ry

     iteration #  5     ecut=    75.00 Ry     beta= 0.70
     Davidson diagonalization with overlap
     ethr =  7.12E-05,  avg # of iterations =  1.3

     negative rho (up, down):  3.365E-06 0.000E+00

     total cpu time spent up to now is        7.0 secs

     total energy              =     -23.90939759 Ry
     estimated scf accuracy    <       0.00605707 Ry

     iteration #  6     ecut=    75.00 Ry     beta= 0.70
     Davidson diagonalization with overlap
     ethr =  7.12E-05,  avg # of iterations =  1.5

     negative rho (up, down):  6.158E-06 0.000E+00

     total cpu time spent up to now is        7.6 secs

     total energy              =     -23.91008941 Ry
     estimated scf accuracy    <       0.00063207 Ry

     iteration #  7     ecut=    75.00 Ry     beta= 0.70
     Davidson diagonalization with overlap
     ethr =  7.90E-06,  avg # of iterations =  8.3

     negative rho (up, down):  3.998E-06 0.000E+00

     total cpu time spent up to now is        8.6 secs

     total energy              =     -23.91150419 Ry
     estimated scf accuracy    <       0.00073967 Ry

     iteration #  8     ecut=    75.00 Ry     beta= 0.70
     Davidson diagonalization with overlap
     ethr =  7.90E-06,  avg # of iterations =  1.9

     negative rho (up, down):  1.283E-05 0.000E+00

     total cpu time spent up to now is        9.2 secs

     total energy              =     -23.90978381 Ry
     estimated scf accuracy    <       0.00311518 Ry

     iteration #  9     ecut=    75.00 Ry     beta= 0.70
     Davidson diagonalization with overlap
     c_bands:  1 eigenvalues not converged
     ethr =  7.90E-06,  avg # of iterations =  7.1

     negative rho (up, down):  1.067E-05 0.000E+00

     total cpu time spent up to now is       10.5 secs

     total energy              =     -23.91085003 Ry
     estimated scf accuracy    <       0.00170670 Ry

     iteration # 10     ecut=    75.00 Ry     beta= 0.70
     Davidson diagonalization with overlap
     ethr =  7.90E-06,  avg # of iterations =  1.8

     negative rho (up, down):  1.642E-05 0.000E+00

     total cpu time spent up to now is       11.1 secs

     total energy              =     -23.91101433 Ry
     estimated scf accuracy    <       0.00142211 Ry

     iteration # 11     ecut=    75.00 Ry     beta= 0.70
     Davidson diagonalization with overlap
     ethr =  7.90E-06,  avg # of iterations =  1.3

     negative rho (up, down):  4.399E-05 0.000E+00

     total cpu time spent up to now is       11.7 secs

     total energy              =     -23.91153502 Ry
     estimated scf accuracy    <       0.00170942 Ry

     iteration # 12     ecut=    75.00 Ry     beta= 0.70
     Davidson diagonalization with overlap
     ethr =  7.90E-06,  avg # of iterations =  1.9

     negative rho (up, down):  9.143E-06 0.000E+00

     total cpu time spent up to now is       12.4 secs

     total energy              =     -23.91025197 Ry
     estimated scf accuracy    <       0.00271222 Ry

     iteration # 13     ecut=    75.00 Ry     beta= 0.70
     Davidson diagonalization with overlap
     ethr =  7.90E-06,  avg # of iterations =  1.3

     negative rho (up, down):  2.037E-06 0.000E+00

     total cpu time spent up to now is       13.0 secs

     total energy              =     -23.91018504 Ry
     estimated scf accuracy    <       0.00055664 Ry

     iteration # 14     ecut=    75.00 Ry     beta= 0.70
     Davidson diagonalization with overlap
     ethr =  6.96E-06,  avg # of iterations =  2.5

     negative rho (up, down):  1.623E-06 0.000E+00

     total cpu time spent up to now is       13.7 secs

     total energy              =     -23.91023950 Ry
     estimated scf accuracy    <       0.00014584 Ry

     iteration # 15     ecut=    75.00 Ry     beta= 0.70
     Davidson diagonalization with overlap
     ethr =  1.82E-06,  avg # of iterations =  4.8

     negative rho (up, down):  1.408E-06 0.000E+00

     total cpu time spent up to now is       14.5 secs

     total energy              =     -23.91024705 Ry
     estimated scf accuracy    <       0.00008541 Ry

     iteration # 16     ecut=    75.00 Ry     beta= 0.70
     Davidson diagonalization with overlap
     ethr =  1.07E-06,  avg # of iterations =  1.7

     negative rho (up, down):  1.618E-06 0.000E+00

     total cpu time spent up to now is       15.1 secs

     total energy              =     -23.91044763 Ry
     estimated scf accuracy    <       0.00009707 Ry

     iteration # 17     ecut=    75.00 Ry     beta= 0.70
     Davidson diagonalization with overlap
     ethr =  1.07E-06,  avg # of iterations =  1.9

     negative rho (up, down):  1.846E-06 0.000E+00

     total cpu time spent up to now is       15.7 secs

     total energy              =     -23.91018366 Ry
     estimated scf accuracy    <       0.00048367 Ry

     iteration # 18     ecut=    75.00 Ry     beta= 0.70
     Davidson diagonalization with overlap
     ethr =  1.07E-06,  avg # of iterations =  2.4

     negative rho (up, down):  2.579E-06 0.000E+00

     total cpu time spent up to now is       16.4 secs

     total energy              =     -23.91022721 Ry
     estimated scf accuracy    <       0.00002027 Ry

     iteration # 19     ecut=    75.00 Ry     beta= 0.70
     Davidson diagonalization with overlap
     ethr =  2.53E-07,  avg # of iterations =  5.2

     negative rho (up, down):  3.398E-06 0.000E+00

     total cpu time spent up to now is       17.5 secs

     total energy              =     -23.91023025 Ry
     estimated scf accuracy    <       0.00008354 Ry

     iteration # 20     ecut=    75.00 Ry     beta= 0.70
     Davidson diagonalization with overlap
     ethr =  2.53E-07,  avg # of iterations =  1.5

     negative rho (up, down):  3.576E-06 0.000E+00

     total cpu time spent up to now is       18.1 secs

     total energy              =     -23.91022739 Ry
     estimated scf accuracy    <       0.00001366 Ry

     iteration # 21     ecut=    75.00 Ry     beta= 0.70
     Davidson diagonalization with overlap
     ethr =  1.71E-07,  avg # of iterations =  3.2

     negative rho (up, down):  3.713E-06 0.000E+00

     total cpu time spent up to now is       18.8 secs

     End of self-consistent calculation

          k = 0.0000 0.0000 0.0000 (  3857 PWs)   bands (ev):

   -19.9898  -8.0905  -3.5149  -3.5149   2.5865   4.2199   5.2608   7.8816

          k = 0.0000 0.0962 0.0000 (  3911 PWs)   bands (ev):

   -19.8257  -7.8939  -4.1642  -3.8540   2.8110   4.4422   5.4814   7.9542

          k = 0.0000 0.1925 0.0000 (  3923 PWs)   bands (ev):

   -19.3351  -7.3095  -5.7999  -4.6480   3.4847   5.1059   6.1425   7.9178

          k = 0.0000 0.2887 0.0000 (  3919 PWs)   bands (ev):

   -18.5239  -7.8977  -6.3565  -5.5295   4.6057   6.1583   6.8915   7.2090

          k = 0.0000 0.3849 0.0000 (  3901 PWs)   bands (ev):

   -17.4039 -10.1017  -6.2644  -5.0851   4.4813   6.1658   7.3018   7.7806

          k = 0.0000 0.4811 0.0000 (  3869 PWs)   bands (ev):

   -16.0058 -12.2041  -6.7382  -3.6587   2.3390   7.0545   8.1886   9.7204

          k = 0.0000-0.5774 0.0000 (  3882 PWs)   bands (ev):

   -14.7353 -13.7174  -6.9009  -2.8115   1.2376   6.9775  10.5282  10.6597

          k = 0.0833 0.1443 0.0000 (  3915 PWs)   bands (ev):

   -19.4984  -7.5033  -5.1962  -4.5326   3.2603   4.8855   5.9233   8.2559

          k = 0.0833 0.2406 0.0000 (  3908 PWs)   bands (ev):

   -18.8475  -6.9046  -6.7334  -5.5322   4.1583   5.7647   6.8067   7.6810

          k = 0.0833 0.3368 0.0000 (  3897 PWs)   bands (ev):

   -17.8817  -8.9779  -6.4197  -5.6147   5.4991   5.5015   7.1089   8.0053

          k = 0.0833 0.4330 0.0000 (  3881 PWs)   bands (ev):

   -16.6197 -11.1022  -7.0554  -4.2317   3.2895   7.2732   7.8958   8.8284

          k = 0.0833 0.5292 0.0000 (  3860 PWs)   bands (ev):

   -15.1366 -13.0474  -7.3843  -2.9187   1.5151   7.7144   9.5012  10.8884

          k = 0.1667 0.2887 0.0000 (  3915 PWs)   bands (ev):

   -18.0421  -8.2331  -6.8965  -5.7940   5.2793   5.9554   6.8529   7.9146

          k = 0.1667 0.3849 0.0000 (  3868 PWs)   bands (ev):

   -16.9329  -9.9611  -7.9535  -4.5378   4.0016   6.8411   8.3349   9.4186

          k = 0.1667 0.4811 0.0000 (  3866 PWs)   bands (ev):

   -15.5549 -11.8746  -8.5292  -3.1073   2.0834   8.8233   9.6194  10.0842

          k = 0.1667 0.5774 0.0000 (  3860 PWs)   bands (ev):

   -14.3143 -13.3159  -8.7140  -2.2120   1.0118   9.5210  11.1104  11.2465

          k = 0.2500 0.4330 0.0000 (  3876 PWs)   bands (ev):

   -15.7031 -10.9939  -9.4406  -3.1917   2.3828   8.6080   9.7593  11.1621

          k = 0.2500 0.5292 0.0000 (  3869 PWs)   bands (ev):

   -14.2776 -12.4184 -10.1482  -1.8022   0.8583  10.4654  10.7402  11.7794

          k = 0.3333 0.5774 0.0000 (  3894 PWs)   bands (ev):

   -13.0573 -13.0573 -11.0510  -0.4428  -0.4428  10.1807  12.4170  12.4171

     the Fermi energy is    -0.4048 ev

!    total energy              =     -23.91023190 Ry
     estimated scf accuracy    <       0.00000070 Ry
     smearing contrib. (-TS)   =      -0.00018232 Ry
     internal energy E=F+TS    =     -23.91004958 Ry

     The total energy is F=E-TS. E is the sum of the following terms:
     one-electron contribution =     -90.80093744 Ry
     hartree contribution      =      47.23316528 Ry
     xc contribution           =      -8.30532668 Ry
     ewald contribution        =      27.96304927 Ry

     convergence has been achieved in  21 iterations

     Writing all to output data dir ../tmp/gr.save/

     init_run     :      0.53s CPU      0.56s WALL (       1 calls)
     electrons    :     16.47s CPU     18.17s WALL (       1 calls)

     Called by init_run:
     wfcinit      :      0.27s CPU      0.27s WALL (       1 calls)
     potinit      :      0.04s CPU      0.04s WALL (       1 calls)
     hinit0       :      0.21s CPU      0.21s WALL (       1 calls)

     Called by electrons:
     c_bands      :     13.69s CPU     15.22s WALL (      22 calls)
     sum_band     :      2.05s CPU      2.08s WALL (      22 calls)
     v_of_rho     :      0.40s CPU      0.40s WALL (      22 calls)
     newd         :      0.24s CPU      0.25s WALL (      22 calls)
     mix_rho      :      0.09s CPU      0.09s WALL (      22 calls)

     Called by c_bands:
     init_us_2    :      0.31s CPU      0.32s WALL (     855 calls)
     init_us_2:cp :      0.31s CPU      0.32s WALL (     855 calls)
     cegterg      :     13.02s CPU     13.24s WALL (     418 calls)

     Called by *egterg:
     cdiaghg      :      0.10s CPU      0.10s WALL (    2051 calls)
     h_psi        :     10.11s CPU     10.31s WALL (    2089 calls)
     s_psi        :      0.51s CPU      0.52s WALL (    2089 calls)
     g_psi        :      0.08s CPU      0.08s WALL (    1652 calls)

     Called by h_psi:
     h_psi:calbec :      0.55s CPU      0.56s WALL (    2089 calls)
     vloc_psi     :      9.00s CPU      9.18s WALL (    2089 calls)
     add_vuspsi   :      0.51s CPU      0.52s WALL (    2089 calls)

     General routines
     calbec       :      0.72s CPU      0.73s WALL (    2507 calls)
     fft          :      0.27s CPU      0.27s WALL (     243 calls)
     ffts         :      0.02s CPU      0.02s WALL (      22 calls)
     fftw         :      9.52s CPU      9.70s WALL (   24220 calls)


     PWSCF        :     17.08s CPU     19.34s WALL


   This run was terminated on:   1:51:54  24Aug2023            

=------------------------------------------------------------------------------=
   JOB DONE.
=------------------------------------------------------------------------------=
