
     Program PWSCF v.7.0 starts on 24Aug2023 at  1:49:51 

     This program is part of the open-source Quantum ESPRESSO suite
     for quantum simulation of materials; please cite
         "P. Giannozzi et al., J. Phys.:Condens. Matter 21 395502 (2009);
         "P. Giannozzi et al., J. Phys.:Condens. Matter 29 465901 (2017);
         "P. Giannozzi et al., J. Chem. Phys. 152 154105 (2020);
          URL http://www.quantum-espresso.org", 
     in publications or presentations arising from this work. More details at
     http://www.quantum-espresso.org/quote

     Serial version
     5119 MiB available memory on the printing compute node when the environment starts

     Waiting for input...
     Reading input from standard input

     Current dimensions of program PWSCF are:
     Max number of different atomic species (ntypx) = 10
     Max number of k-points (npk) =  40000
     Max angular momentum in pseudopotentials (lmaxx) =  4

     G-vector sticks info
     --------------------
     sticks:   dense  smooth     PW     G-vecs:    dense   smooth      PW
     Sum         187     187     61                 7823     7823    1587

     Using Slab Decomposition



     bravais-lattice index     =            4
     lattice parameter (alat)  =       4.6531  a.u.
     unit-cell volume          =     354.3310 (a.u.)^3
     number of atoms/cell      =            2
     number of atomic types    =            1
     number of electrons       =         8.00
     number of Kohn-Sham states=            8
     kinetic-energy cutoff     =      30.0000  Ry
     charge density cutoff     =     120.0000  Ry
     scf convergence threshold =      1.0E-06
     mixing beta               =       0.7000
     number of iterations used =            8  plain     mixing
     Exchange-correlation= PBE
                           (   1   4   3   4   0   0   0)

     celldm(1)=   4.653073  celldm(2)=   0.000000  celldm(3)=   4.061244
     celldm(4)=   0.000000  celldm(5)=   0.000000  celldm(6)=   0.000000

     crystal axes: (cart. coord. in units of alat)
               a(1) = (   1.000000   0.000000   0.000000 )  
               a(2) = (  -0.500000   0.866025   0.000000 )  
               a(3) = (   0.000000   0.000000   4.061244 )  

     reciprocal axes: (cart. coord. in units 2 pi/alat)
               b(1) = (  1.000000  0.577350 -0.000000 )  
               b(2) = (  0.000000  1.154701  0.000000 )  
               b(3) = (  0.000000 -0.000000  0.246230 )  


     PseudoPot. # 1 for C  read from file:
     ../pseudo/C.pbe-n-rrkjus_psl.0.1.UPF
     MD5 check sum: 96a6a315177d77e6c95bf6fd3870f9e3
     Pseudo is Ultrasoft + core correction, Zval =  4.0
     Generated using &quot;atomic&quot; code by A. Dal Corso  v.6.3MaX
     Using radial grid of 1073 points,  4 beta functions with: 
                l(1) =   0
                l(2) =   0
                l(3) =   1
                l(4) =   1
     Q(r) pseudized with 0 coefficients 


     atomic species   valence    mass     pseudopotential
        C              4.00    12.01070     C ( 1.00)

     24 Sym. Ops., with inversion, found



   Cartesian axes

     site n.     atom                  positions (alat units)
         1           C   tau(   1) = (   0.0000000   0.5773503   2.0306218  )
         2           C   tau(   2) = (   0.5000000   0.2886751   2.0306218  )

     number of k points=    19  Marzari-Vanderbilt smearing, width (Ry)=  0.0200
                       cart. coord. in units 2pi/alat
        k(    1) = (   0.0000000   0.0000000   0.0000000), wk =   0.0138889
        k(    2) = (   0.0000000   0.0962250   0.0000000), wk =   0.0833333
        k(    3) = (   0.0000000   0.1924501   0.0000000), wk =   0.0833333
        k(    4) = (   0.0000000   0.2886751   0.0000000), wk =   0.0833333
        k(    5) = (   0.0000000   0.3849002   0.0000000), wk =   0.0833333
        k(    6) = (   0.0000000   0.4811252   0.0000000), wk =   0.0833333
        k(    7) = (   0.0000000  -0.5773503   0.0000000), wk =   0.0416667
        k(    8) = (   0.0833333   0.1443376   0.0000000), wk =   0.0833333
        k(    9) = (   0.0833333   0.2405626   0.0000000), wk =   0.1666667
        k(   10) = (   0.0833333   0.3367877   0.0000000), wk =   0.1666667
        k(   11) = (   0.0833333   0.4330127   0.0000000), wk =   0.1666667
        k(   12) = (   0.0833333   0.5292377   0.0000000), wk =   0.1666667
        k(   13) = (   0.1666667   0.2886751   0.0000000), wk =   0.0833333
        k(   14) = (   0.1666667   0.3849002   0.0000000), wk =   0.1666667
        k(   15) = (   0.1666667   0.4811252   0.0000000), wk =   0.1666667
        k(   16) = (   0.1666667   0.5773503   0.0000000), wk =   0.0833333
        k(   17) = (   0.2500000   0.4330127   0.0000000), wk =   0.0833333
        k(   18) = (   0.2500000   0.5292377   0.0000000), wk =   0.1666667
        k(   19) = (   0.3333333   0.5773503   0.0000000), wk =   0.0277778

     Dense  grid:     7823 G-vectors     FFT dimensions: (  18,  18,  72)

     Estimated max dynamical RAM per process >      13.12 MB

     Check: negative core charge=   -0.000020

     Initial potential from superposition of free atoms

     starting charge       7.9999, renormalised to       8.0000

     negative rho (up, down):  1.526E-03 0.000E+00
     Starting wfcs are    8 randomized atomic wfcs

     total cpu time spent up to now is        0.5 secs

     Self-consistent Calculation

     iteration #  1     ecut=    30.00 Ry     beta= 0.70
     Davidson diagonalization with overlap
     ethr =  1.00E-02,  avg # of iterations =  9.3

     negative rho (up, down):  4.148E-05 0.000E+00

     total cpu time spent up to now is        0.9 secs

     total energy              =     -23.87342836 Ry
     estimated scf accuracy    <       0.12857397 Ry

     iteration #  2     ecut=    30.00 Ry     beta= 0.70
     Davidson diagonalization with overlap
     ethr =  1.61E-03,  avg # of iterations =  3.2

     negative rho (up, down):  1.996E-04 0.000E+00

     total cpu time spent up to now is        1.1 secs

     total energy              =     -23.89290661 Ry
     estimated scf accuracy    <       0.00821620 Ry

     iteration #  3     ecut=    30.00 Ry     beta= 0.70
     Davidson diagonalization with overlap
     c_bands:  1 eigenvalues not converged
     c_bands:  1 eigenvalues not converged
     c_bands:  1 eigenvalues not converged
     ethr =  1.03E-04,  avg # of iterations = 13.9

     negative rho (up, down):  2.216E-04 0.000E+00

     total cpu time spent up to now is        1.7 secs

     total energy              =     -23.89864607 Ry
     estimated scf accuracy    <       0.00089590 Ry

     iteration #  4     ecut=    30.00 Ry     beta= 0.70
     Davidson diagonalization with overlap
     c_bands:  1 eigenvalues not converged
     ethr =  1.12E-05,  avg # of iterations =  8.8

     negative rho (up, down):  3.234E-04 0.000E+00

     total cpu time spent up to now is        2.1 secs

     total energy              =     -23.89895921 Ry
     estimated scf accuracy    <       0.00046220 Ry

     iteration #  5     ecut=    30.00 Ry     beta= 0.70
     Davidson diagonalization with overlap
     ethr =  5.78E-06,  avg # of iterations =  3.6

     negative rho (up, down):  3.179E-04 0.000E+00

     total cpu time spent up to now is        2.3 secs

     total energy              =     -23.89899909 Ry
     estimated scf accuracy    <       0.00002208 Ry

     iteration #  6     ecut=    30.00 Ry     beta= 0.70
     Davidson diagonalization with overlap
     ethr =  2.76E-07,  avg # of iterations =  6.4

     negative rho (up, down):  3.199E-04 0.000E+00

     total cpu time spent up to now is        2.7 secs

     total energy              =     -23.89902183 Ry
     estimated scf accuracy    <       0.00000137 Ry

     iteration #  7     ecut=    30.00 Ry     beta= 0.70
     Davidson diagonalization with overlap
     ethr =  1.71E-08,  avg # of iterations =  3.5

     negative rho (up, down):  3.227E-04 0.000E+00

     total cpu time spent up to now is        2.9 secs

     End of self-consistent calculation

          k = 0.0000 0.0000 0.0000 (   939 PWs)   bands (ev):

   -20.0065  -8.0885  -3.4754  -3.4754   2.4761   4.1509   5.0668   7.9129

          k = 0.0000 0.0962 0.0000 (   945 PWs)   bands (ev):

   -19.8422  -7.8925  -4.1354  -3.8191   2.7013   4.3734   5.2869   7.9830

          k = 0.0000 0.1925 0.0000 (   963 PWs)   bands (ev):

   -19.3511  -7.3054  -5.7895  -4.6216   3.3768   5.0386   5.9478   7.9286

          k = 0.0000 0.2887 0.0000 (   979 PWs)   bands (ev):

   -18.5395  -7.8966  -6.3521  -5.5134   4.5009   6.1003   6.9110   7.0267

          k = 0.0000 0.3849 0.0000 (   989 PWs)   bands (ev):

   -17.4191 -10.1075  -6.2522  -5.0796   4.5004   6.0672   7.2944   7.7182

          k = 0.0000 0.4811 0.0000 (   989 PWs)   bands (ev):

   -16.0199 -12.2113  -6.7269  -3.6542   2.3523   7.0516   8.0940   9.6630

          k = 0.0000-0.5774 0.0000 (   992 PWs)   bands (ev):

   -14.7490 -13.7247  -6.8933  -2.8039   1.2519   6.9747  10.4518  10.5713

          k = 0.0833 0.1443 0.0000 (   964 PWs)   bands (ev):

   -19.5146  -7.5010  -5.1845  -4.5086   3.1517   4.8174   5.7286   8.2746

          k = 0.0833 0.2406 0.0000 (   970 PWs)   bands (ev):

   -18.8632  -6.8993  -6.7287  -5.5129   4.0521   5.6985   6.6110   7.7096

          k = 0.0833 0.3368 0.0000 (   991 PWs)   bands (ev):

   -17.8969  -8.9816  -6.4080  -5.6113   5.3994   5.5159   7.0459   7.8740

          k = 0.0833 0.4330 0.0000 (   993 PWs)   bands (ev):

   -16.6344 -11.1083  -7.0465  -4.2268   3.3046   7.1807   7.8903   8.7694

          k = 0.0833 0.5292 0.0000 (   987 PWs)   bands (ev):

   -15.1498 -13.0544  -7.3763  -2.9098   1.5297   7.7145   9.4133  10.8416

          k = 0.1667 0.2887 0.0000 (   994 PWs)   bands (ev):

   -18.0575  -8.2364  -6.8851  -5.7902   5.1761   5.9740   6.7891   7.7171

          k = 0.1667 0.3849 0.0000 (   995 PWs)   bands (ev):

   -16.9477  -9.9664  -7.9463  -4.5325   4.0173   6.7431   8.2771   9.2341

          k = 0.1667 0.4811 0.0000 (   993 PWs)   bands (ev):

   -15.5685 -11.8815  -8.5245  -3.0979   2.0980   8.7356   9.6205  10.0415

          k = 0.1667 0.5774 0.0000 (   994 PWs)   bands (ev):

   -14.3274 -13.3237  -8.7094  -2.2035   1.0260   9.5249  11.0452  11.2015

          k = 0.2500 0.4330 0.0000 (   986 PWs)   bands (ev):

   -15.7164 -11.0002  -9.4330  -3.1827   2.3978   8.5177   9.7200  10.9705

          k = 0.2500 0.5292 0.0000 (   987 PWs)   bands (ev):

   -14.2896 -12.4260 -10.1438  -1.7917   0.8724  10.4566  10.6679  11.7875

          k = 0.3333 0.5774 0.0000 (   984 PWs)   bands (ev):

   -13.0670 -13.0670 -11.0434  -0.4313  -0.4313  10.1750  12.4031  12.4046

     the Fermi energy is    -0.3934 ev

!    total energy              =     -23.89902242 Ry
     estimated scf accuracy    <       0.00000029 Ry
     smearing contrib. (-TS)   =      -0.00018232 Ry
     internal energy E=F+TS    =     -23.89884009 Ry

     The total energy is F=E-TS. E is the sum of the following terms:
     one-electron contribution =     -90.78595029 Ry
     hartree contribution      =      47.22678744 Ry
     xc contribution           =      -8.30272648 Ry
     ewald contribution        =      27.96304924 Ry

     convergence has been achieved in   7 iterations

     Writing all to output data dir ../tmp/gr.save/

     init_run     :      0.30s CPU      0.32s WALL (       1 calls)
     electrons    :      1.94s CPU      2.54s WALL (       1 calls)

     Called by init_run:
     wfcinit      :      0.13s CPU      0.13s WALL (       1 calls)
     potinit      :      0.01s CPU      0.02s WALL (       1 calls)
     hinit0       :      0.17s CPU      0.17s WALL (       1 calls)

     Called by electrons:
     c_bands      :      1.67s CPU      2.20s WALL (       7 calls)
     sum_band     :      0.20s CPU      0.20s WALL (       7 calls)
     v_of_rho     :      0.05s CPU      0.05s WALL (       8 calls)
     newd         :      0.02s CPU      0.02s WALL (       8 calls)
     mix_rho      :      0.00s CPU      0.00s WALL (       7 calls)

     Called by c_bands:
     init_us_2    :      0.03s CPU      0.03s WALL (     285 calls)
     init_us_2:cp :      0.03s CPU      0.03s WALL (     285 calls)
     cegterg      :      1.58s CPU      1.68s WALL (     133 calls)

     Called by *egterg:
     cdiaghg      :      0.05s CPU      0.05s WALL (    1058 calls)
     h_psi        :      1.33s CPU      1.40s WALL (    1077 calls)
     s_psi        :      0.05s CPU      0.06s WALL (    1077 calls)
     g_psi        :      0.01s CPU      0.01s WALL (     925 calls)

     Called by h_psi:
     h_psi:calbec :      0.05s CPU      0.06s WALL (    1077 calls)
     vloc_psi     :      1.21s CPU      1.28s WALL (    1077 calls)
     add_vuspsi   :      0.05s CPU      0.06s WALL (    1077 calls)

     General routines
     calbec       :      0.07s CPU      0.07s WALL (    1210 calls)
     fft          :      0.12s CPU      0.12s WALL (      88 calls)
     ffts         :      0.00s CPU      0.00s WALL (       7 calls)
     fftw         :      1.25s CPU      1.31s WALL (    9792 calls)


     PWSCF        :      2.28s CPU      3.34s WALL


   This run was terminated on:   1:49:55  24Aug2023            

=------------------------------------------------------------------------------=
   JOB DONE.
=------------------------------------------------------------------------------=
