
     Program PWSCF v.7.0 starts on 24Aug2023 at  0:37:32 

     This program is part of the open-source Quantum ESPRESSO suite
     for quantum simulation of materials; please cite
         "P. Giannozzi et al., J. Phys.:Condens. Matter 21 395502 (2009);
         "P. Giannozzi et al., J. Phys.:Condens. Matter 29 465901 (2017);
         "P. Giannozzi et al., J. Chem. Phys. 152 154105 (2020);
          URL http://www.quantum-espresso.org", 
     in publications or presentations arising from this work. More details at
     http://www.quantum-espresso.org/quote

     Serial version
     5476 MiB available memory on the printing compute node when the environment starts

     Waiting for input...
     Reading input from standard input

     Current dimensions of program PWSCF are:
     Max number of different atomic species (ntypx) = 10
     Max number of k-points (npk) =  40000
     Max angular momentum in pseudopotentials (lmaxx) =  4

     G-vector sticks info
     --------------------
     sticks:   dense  smooth     PW     G-vecs:    dense   smooth      PW
     Sum         121     121     37                 4325     4325     885

     Using Slab Decomposition



     bravais-lattice index     =            4
     lattice parameter (alat)  =       4.6531  a.u.
     unit-cell volume          =     354.3310 (a.u.)^3
     number of atoms/cell      =            2
     number of atomic types    =            1
     number of electrons       =         8.00
     number of Kohn-Sham states=            8
     kinetic-energy cutoff     =      20.0000  Ry
     charge density cutoff     =      80.0000  Ry
     scf convergence threshold =      1.0E-06
     mixing beta               =       0.7000
     number of iterations used =            8  plain     mixing
     Exchange-correlation= PBE
                           (   1   4   3   4   0   0   0)

     celldm(1)=   4.653073  celldm(2)=   0.000000  celldm(3)=   4.061244
     celldm(4)=   0.000000  celldm(5)=   0.000000  celldm(6)=   0.000000

     crystal axes: (cart. coord. in units of alat)
               a(1) = (   1.000000   0.000000   0.000000 )  
               a(2) = (  -0.500000   0.866025   0.000000 )  
               a(3) = (   0.000000   0.000000   4.061244 )  

     reciprocal axes: (cart. coord. in units 2 pi/alat)
               b(1) = (  1.000000  0.577350 -0.000000 )  
               b(2) = (  0.000000  1.154701  0.000000 )  
               b(3) = (  0.000000 -0.000000  0.246230 )  


     PseudoPot. # 1 for C  read from file:
     ../pseudo/C.pbe-n-rrkjus_psl.0.1.UPF
     MD5 check sum: 96a6a315177d77e6c95bf6fd3870f9e3
     Pseudo is Ultrasoft + core correction, Zval =  4.0
     Generated using &quot;atomic&quot; code by A. Dal Corso  v.6.3MaX
     Using radial grid of 1073 points,  4 beta functions with: 
                l(1) =   0
                l(2) =   0
                l(3) =   1
                l(4) =   1
     Q(r) pseudized with 0 coefficients 


     atomic species   valence    mass     pseudopotential
        C              4.00    12.01070     C ( 1.00)

     24 Sym. Ops., with inversion, found



   Cartesian axes

     site n.     atom                  positions (alat units)
         1           C   tau(   1) = (   0.0000000   0.5773503   2.0306218  )
         2           C   tau(   2) = (   0.5000000   0.2886751   2.0306218  )

     number of k points=    19  Marzari-Vanderbilt smearing, width (Ry)=  0.0200
                       cart. coord. in units 2pi/alat
        k(    1) = (   0.0000000   0.0000000   0.0000000), wk =   0.0138889
        k(    2) = (   0.0000000   0.0962250   0.0000000), wk =   0.0833333
        k(    3) = (   0.0000000   0.1924501   0.0000000), wk =   0.0833333
        k(    4) = (   0.0000000   0.2886751   0.0000000), wk =   0.0833333
        k(    5) = (   0.0000000   0.3849002   0.0000000), wk =   0.0833333
        k(    6) = (   0.0000000   0.4811252   0.0000000), wk =   0.0833333
        k(    7) = (   0.0000000  -0.5773503   0.0000000), wk =   0.0416667
        k(    8) = (   0.0833333   0.1443376   0.0000000), wk =   0.0833333
        k(    9) = (   0.0833333   0.2405626   0.0000000), wk =   0.1666667
        k(   10) = (   0.0833333   0.3367877   0.0000000), wk =   0.1666667
        k(   11) = (   0.0833333   0.4330127   0.0000000), wk =   0.1666667
        k(   12) = (   0.0833333   0.5292377   0.0000000), wk =   0.1666667
        k(   13) = (   0.1666667   0.2886751   0.0000000), wk =   0.0833333
        k(   14) = (   0.1666667   0.3849002   0.0000000), wk =   0.1666667
        k(   15) = (   0.1666667   0.4811252   0.0000000), wk =   0.1666667
        k(   16) = (   0.1666667   0.5773503   0.0000000), wk =   0.0833333
        k(   17) = (   0.2500000   0.4330127   0.0000000), wk =   0.0833333
        k(   18) = (   0.2500000   0.5292377   0.0000000), wk =   0.1666667
        k(   19) = (   0.3333333   0.5773503   0.0000000), wk =   0.0277778

     Dense  grid:     4325 G-vectors     FFT dimensions: (  15,  15,  54)

     Estimated max dynamical RAM per process >       7.24 MB

     Check: negative core charge=   -0.000302

     Initial potential from superposition of free atoms

     starting charge       7.9999, renormalised to       8.0000

     negative rho (up, down):  5.095E-03 0.000E+00
     Starting wfcs are    8 randomized atomic wfcs

     total cpu time spent up to now is        0.5 secs

     Self-consistent Calculation

     iteration #  1     ecut=    20.00 Ry     beta= 0.70
     Davidson diagonalization with overlap
     ethr =  1.00E-02,  avg # of iterations =  7.6

     negative rho (up, down):  1.907E-03 0.000E+00

     total cpu time spent up to now is        0.7 secs

     total energy              =     -23.56916941 Ry
     estimated scf accuracy    <       0.12502981 Ry

     iteration #  2     ecut=    20.00 Ry     beta= 0.70
     Davidson diagonalization with overlap
     ethr =  1.56E-03,  avg # of iterations =  2.5

     negative rho (up, down):  1.137E-03 0.000E+00

     total cpu time spent up to now is        0.9 secs

     total energy              =     -23.58152168 Ry
     estimated scf accuracy    <       0.00240189 Ry

     iteration #  3     ecut=    20.00 Ry     beta= 0.70
     Davidson diagonalization with overlap
     ethr =  3.00E-05,  avg # of iterations =  8.8

     negative rho (up, down):  1.049E-03 0.000E+00

     total cpu time spent up to now is        1.1 secs

     total energy              =     -23.58218778 Ry
     estimated scf accuracy    <       0.00018475 Ry

     iteration #  4     ecut=    20.00 Ry     beta= 0.70
     Davidson diagonalization with overlap
     ethr =  2.31E-06,  avg # of iterations =  4.4

     negative rho (up, down):  1.043E-03 0.000E+00

     total cpu time spent up to now is        1.3 secs

     total energy              =     -23.58222086 Ry
     estimated scf accuracy    <       0.00003479 Ry

     iteration #  5     ecut=    20.00 Ry     beta= 0.70
     Davidson diagonalization with overlap
     ethr =  4.35E-07,  avg # of iterations =  2.8

     negative rho (up, down):  1.046E-03 0.000E+00

     total cpu time spent up to now is        1.4 secs

     total energy              =     -23.58222918 Ry
     estimated scf accuracy    <       0.00000186 Ry

     iteration #  6     ecut=    20.00 Ry     beta= 0.70
     Davidson diagonalization with overlap
     ethr =  2.32E-08,  avg # of iterations =  2.3

     negative rho (up, down):  1.046E-03 0.000E+00

     total cpu time spent up to now is        1.6 secs

     End of self-consistent calculation

          k = 0.0000 0.0000 0.0000 (   549 PWs)   bands (ev):

   -20.8198  -8.0188  -3.6268  -3.6268   1.1573   2.9849   3.8766   8.7551

          k = 0.0000 0.0962 0.0000 (   539 PWs)   bands (ev):

   -20.6470  -7.8119  -4.1653  -3.8067   1.3855   3.2104   4.1009   8.7311

          k = 0.0000 0.1925 0.0000 (   542 PWs)   bands (ev):

   -20.1371  -7.2869  -5.8558  -4.6190   2.0693   3.8732   4.7710   8.1174

          k = 0.0000 0.2887 0.0000 (   526 PWs)   bands (ev):

   -19.2792  -7.9684  -6.2471  -5.3750   3.2093   4.9863   5.8900   7.6065

          k = 0.0000 0.3849 0.0000 (   530 PWs)   bands (ev):

   -18.1138 -10.2611  -6.2124  -4.9480   4.8023   4.9952   6.6442   6.9145

          k = 0.0000 0.4811 0.0000 (   538 PWs)   bands (ev):

   -16.6763 -12.5865  -6.6920  -3.5056   2.6535   6.4869   6.8463   8.5958

          k = 0.0000-0.5774 0.0000 (   538 PWs)   bands (ev):

   -15.4327 -14.0753  -6.9487  -2.4875   1.5043   6.3612   9.3354   9.3359

          k = 0.0833 0.1443 0.0000 (   543 PWs)   bands (ev):

   -20.3025  -7.4627  -5.3083  -4.5270   1.8418   3.6525   4.5494   8.8854

          k = 0.0833 0.2406 0.0000 (   541 PWs)   bands (ev):

   -19.6289  -6.9857  -6.6724  -5.5515   2.7528   4.5455   5.4405   8.5358

          k = 0.0833 0.3368 0.0000 (   536 PWs)   bands (ev):

   -18.6199  -9.1657  -6.4357  -5.5101   4.1191   5.7565   6.2601   6.7777

          k = 0.0833 0.4330 0.0000 (   533 PWs)   bands (ev):

   -17.3132 -11.3823  -7.0500  -4.0906   3.6987   5.9377   7.5039   7.6903

          k = 0.0833 0.5292 0.0000 (   532 PWs)   bands (ev):

   -15.7944 -13.4315  -7.3918  -2.6815   1.8433   7.2447   8.2045   9.8571

          k = 0.1667 0.2887 0.0000 (   537 PWs)   bands (ev):

   -18.7897  -8.3370  -6.9635  -5.7498   3.8913   5.6483   6.5546   6.7391

          k = 0.1667 0.3849 0.0000 (   532 PWs)   bands (ev):

   -17.6361 -10.2306  -8.0405  -4.4194   4.6245   5.4830   7.1876   8.1072

          k = 0.1667 0.4811 0.0000 (   526 PWs)   bands (ev):

   -16.1948 -12.2100  -8.5680  -2.8735   2.4732   7.5250   9.0753   9.4915

          k = 0.1667 0.5774 0.0000 (   532 PWs)   bands (ev):

   -14.9807 -13.7077  -8.7981  -1.9710   1.2979   9.3377   9.9973  10.0020

          k = 0.2500 0.4330 0.0000 (   537 PWs)   bands (ev):

   -16.3567 -11.3876  -9.6148  -2.9995   2.7471   7.2968   8.7704   9.8613

          k = 0.2500 0.5292 0.0000 (   532 PWs)   bands (ev):

   -14.8865 -12.8271 -10.2832  -1.6033   1.1800   9.5463   9.8830  11.8972

          k = 0.3333 0.5774 0.0000 (   531 PWs)   bands (ev):

   -13.6026 -13.6026 -11.0630  -0.2011  -0.2011   9.6558  11.8939  11.8940

     the Fermi energy is    -0.1632 ev

!    total energy              =     -23.58222965 Ry
     estimated scf accuracy    <       0.00000001 Ry
     smearing contrib. (-TS)   =      -0.00018232 Ry
     internal energy E=F+TS    =     -23.58204733 Ry

     The total energy is F=E-TS. E is the sum of the following terms:
     one-electron contribution =     -90.09246351 Ry
     hartree contribution      =      46.78037556 Ry
     xc contribution           =      -8.23300864 Ry
     ewald contribution        =      27.96304927 Ry

     convergence has been achieved in   6 iterations

     Writing all to output data dir ../tmp/gr.save/

     init_run     :      0.14s CPU      0.19s WALL (       1 calls)
     electrons    :      0.65s CPU      1.25s WALL (       1 calls)

     Called by init_run:
     wfcinit      :      0.04s CPU      0.05s WALL (       1 calls)
     potinit      :      0.01s CPU      0.03s WALL (       1 calls)
     hinit0       :      0.09s CPU      0.10s WALL (       1 calls)

     Called by electrons:
     c_bands      :      0.55s CPU      0.94s WALL (       6 calls)
     sum_band     :      0.06s CPU      0.07s WALL (       6 calls)
     v_of_rho     :      0.02s CPU      0.02s WALL (       7 calls)
     newd         :      0.01s CPU      0.01s WALL (       7 calls)
     mix_rho      :      0.00s CPU      0.00s WALL (       6 calls)

     Called by c_bands:
     init_us_2    :      0.01s CPU      0.01s WALL (     247 calls)
     init_us_2:cp :      0.01s CPU      0.01s WALL (     247 calls)
     cegterg      :      0.49s CPU      0.53s WALL (     114 calls)

     Called by *egterg:
     cdiaghg      :      0.03s CPU      0.03s WALL (     655 calls)
     h_psi        :      0.39s CPU      0.41s WALL (     674 calls)
     s_psi        :      0.02s CPU      0.02s WALL (     674 calls)
     g_psi        :      0.00s CPU      0.00s WALL (     541 calls)

     Called by h_psi:
     h_psi:calbec :      0.02s CPU      0.02s WALL (     674 calls)
     vloc_psi     :      0.34s CPU      0.36s WALL (     674 calls)
     add_vuspsi   :      0.02s CPU      0.02s WALL (     674 calls)

     General routines
     calbec       :      0.03s CPU      0.03s WALL (     788 calls)
     fft          :      0.05s CPU      0.05s WALL (      77 calls)
     ffts         :      0.00s CPU      0.00s WALL (       6 calls)
     fftw         :      0.34s CPU      0.36s WALL (    7178 calls)


     PWSCF        :      0.82s CPU      3.34s WALL


   This run was terminated on:   0:37:35  24Aug2023            

=------------------------------------------------------------------------------=
   JOB DONE.
=------------------------------------------------------------------------------=
