
     Program PWSCF v.7.0 starts on 24Aug2023 at  1:49:55 

     This program is part of the open-source Quantum ESPRESSO suite
     for quantum simulation of materials; please cite
         "P. Giannozzi et al., J. Phys.:Condens. Matter 21 395502 (2009);
         "P. Giannozzi et al., J. Phys.:Condens. Matter 29 465901 (2017);
         "P. Giannozzi et al., J. Chem. Phys. 152 154105 (2020);
          URL http://www.quantum-espresso.org", 
     in publications or presentations arising from this work. More details at
     http://www.quantum-espresso.org/quote

     Serial version
     5121 MiB available memory on the printing compute node when the environment starts

     Waiting for input...
     Reading input from standard input

     Current dimensions of program PWSCF are:
     Max number of different atomic species (ntypx) = 10
     Max number of k-points (npk) =  40000
     Max angular momentum in pseudopotentials (lmaxx) =  4

     G-vector sticks info
     --------------------
     sticks:   dense  smooth     PW     G-vecs:    dense   smooth      PW
     Sum         211     211     73                 9941     9941    1853

     Using Slab Decomposition



     bravais-lattice index     =            4
     lattice parameter (alat)  =       4.6531  a.u.
     unit-cell volume          =     354.3310 (a.u.)^3
     number of atoms/cell      =            2
     number of atomic types    =            1
     number of electrons       =         8.00
     number of Kohn-Sham states=            8
     kinetic-energy cutoff     =      35.0000  Ry
     charge density cutoff     =     140.0000  Ry
     scf convergence threshold =      1.0E-06
     mixing beta               =       0.7000
     number of iterations used =            8  plain     mixing
     Exchange-correlation= PBE
                           (   1   4   3   4   0   0   0)

     celldm(1)=   4.653073  celldm(2)=   0.000000  celldm(3)=   4.061244
     celldm(4)=   0.000000  celldm(5)=   0.000000  celldm(6)=   0.000000

     crystal axes: (cart. coord. in units of alat)
               a(1) = (   1.000000   0.000000   0.000000 )  
               a(2) = (  -0.500000   0.866025   0.000000 )  
               a(3) = (   0.000000   0.000000   4.061244 )  

     reciprocal axes: (cart. coord. in units 2 pi/alat)
               b(1) = (  1.000000  0.577350 -0.000000 )  
               b(2) = (  0.000000  1.154701  0.000000 )  
               b(3) = (  0.000000 -0.000000  0.246230 )  


     PseudoPot. # 1 for C  read from file:
     ../pseudo/C.pbe-n-rrkjus_psl.0.1.UPF
     MD5 check sum: 96a6a315177d77e6c95bf6fd3870f9e3
     Pseudo is Ultrasoft + core correction, Zval =  4.0
     Generated using &quot;atomic&quot; code by A. Dal Corso  v.6.3MaX
     Using radial grid of 1073 points,  4 beta functions with: 
                l(1) =   0
                l(2) =   0
                l(3) =   1
                l(4) =   1
     Q(r) pseudized with 0 coefficients 


     atomic species   valence    mass     pseudopotential
        C              4.00    12.01070     C ( 1.00)

     24 Sym. Ops., with inversion, found



   Cartesian axes

     site n.     atom                  positions (alat units)
         1           C   tau(   1) = (   0.0000000   0.5773503   2.0306218  )
         2           C   tau(   2) = (   0.5000000   0.2886751   2.0306218  )

     number of k points=    19  Marzari-Vanderbilt smearing, width (Ry)=  0.0200
                       cart. coord. in units 2pi/alat
        k(    1) = (   0.0000000   0.0000000   0.0000000), wk =   0.0138889
        k(    2) = (   0.0000000   0.0962250   0.0000000), wk =   0.0833333
        k(    3) = (   0.0000000   0.1924501   0.0000000), wk =   0.0833333
        k(    4) = (   0.0000000   0.2886751   0.0000000), wk =   0.0833333
        k(    5) = (   0.0000000   0.3849002   0.0000000), wk =   0.0833333
        k(    6) = (   0.0000000   0.4811252   0.0000000), wk =   0.0833333
        k(    7) = (   0.0000000  -0.5773503   0.0000000), wk =   0.0416667
        k(    8) = (   0.0833333   0.1443376   0.0000000), wk =   0.0833333
        k(    9) = (   0.0833333   0.2405626   0.0000000), wk =   0.1666667
        k(   10) = (   0.0833333   0.3367877   0.0000000), wk =   0.1666667
        k(   11) = (   0.0833333   0.4330127   0.0000000), wk =   0.1666667
        k(   12) = (   0.0833333   0.5292377   0.0000000), wk =   0.1666667
        k(   13) = (   0.1666667   0.2886751   0.0000000), wk =   0.0833333
        k(   14) = (   0.1666667   0.3849002   0.0000000), wk =   0.1666667
        k(   15) = (   0.1666667   0.4811252   0.0000000), wk =   0.1666667
        k(   16) = (   0.1666667   0.5773503   0.0000000), wk =   0.0833333
        k(   17) = (   0.2500000   0.4330127   0.0000000), wk =   0.0833333
        k(   18) = (   0.2500000   0.5292377   0.0000000), wk =   0.1666667
        k(   19) = (   0.3333333   0.5773503   0.0000000), wk =   0.0277778

     Dense  grid:     9941 G-vectors     FFT dimensions: (  18,  18,  72)

     Estimated max dynamical RAM per process >      16.16 MB

     Check: negative core charge=   -0.000021

     Initial potential from superposition of free atoms

     starting charge       7.9999, renormalised to       8.0000

     negative rho (up, down):  4.210E-04 0.000E+00
     Starting wfcs are    8 randomized atomic wfcs

     total cpu time spent up to now is        0.4 secs

     Self-consistent Calculation

     iteration #  1     ecut=    35.00 Ry     beta= 0.70
     Davidson diagonalization with overlap
     ethr =  1.00E-02,  avg # of iterations =  8.7

     total cpu time spent up to now is        0.9 secs

     total energy              =     -23.87080159 Ry
     estimated scf accuracy    <       0.12190987 Ry

     iteration #  2     ecut=    35.00 Ry     beta= 0.70
     Davidson diagonalization with overlap
     ethr =  1.52E-03,  avg # of iterations =  4.6

     negative rho (up, down):  2.028E-04 0.000E+00

     total cpu time spent up to now is        1.2 secs

     total energy              =     -23.89808350 Ry
     estimated scf accuracy    <       0.01036319 Ry

     iteration #  3     ecut=    35.00 Ry     beta= 0.70
     Davidson diagonalization with overlap
     c_bands:  1 eigenvalues not converged
     c_bands:  2 eigenvalues not converged
     ethr =  1.30E-04,  avg # of iterations = 14.5

     negative rho (up, down):  1.887E-04 0.000E+00

     total cpu time spent up to now is        1.8 secs

     total energy              =     -23.90752540 Ry
     estimated scf accuracy    <       0.00201266 Ry

     iteration #  4     ecut=    35.00 Ry     beta= 0.70
     Davidson diagonalization with overlap
     ethr =  2.52E-05,  avg # of iterations =  5.8

     negative rho (up, down):  3.080E-04 0.000E+00

     total cpu time spent up to now is        2.1 secs

     total energy              =     -23.90789610 Ry
     estimated scf accuracy    <       0.00031521 Ry

     iteration #  5     ecut=    35.00 Ry     beta= 0.70
     Davidson diagonalization with overlap
     c_bands:  1 eigenvalues not converged
     ethr =  3.94E-06,  avg # of iterations =  9.4

     negative rho (up, down):  2.767E-04 0.000E+00

     total cpu time spent up to now is        2.6 secs

     total energy              =     -23.90803751 Ry
     estimated scf accuracy    <       0.00007010 Ry

     iteration #  6     ecut=    35.00 Ry     beta= 0.70
     Davidson diagonalization with overlap
     ethr =  8.76E-07,  avg # of iterations =  4.7

     negative rho (up, down):  2.742E-04 0.000E+00

     total cpu time spent up to now is        2.9 secs

     End of self-consistent calculation

          k = 0.0000 0.0000 0.0000 (  1265 PWs)   bands (ev):

   -19.9951  -8.0936  -3.5195  -3.5194   2.3257   4.0095   4.9128   7.8824

          k = 0.0000 0.0962 0.0000 (  1269 PWs)   bands (ev):

   -19.8310  -7.8971  -4.1691  -3.8587   2.5514   4.2324   5.1328   7.9567

          k = 0.0000 0.1925 0.0000 (  1257 PWs)   bands (ev):

   -19.3405  -7.3127  -5.8040  -4.6525   3.2284   4.8982   5.7931   7.9177

          k = 0.0000 0.2887 0.0000 (  1246 PWs)   bands (ev):

   -18.5292  -7.9026  -6.3595  -5.5339   4.3554   5.9689   6.8755   6.8801

          k = 0.0000 0.3849 0.0000 (  1234 PWs)   bands (ev):

   -17.4092 -10.1074  -6.2683  -5.0879   4.4796   5.9269   7.2926   7.5839

          k = 0.0000 0.4811 0.0000 (  1218 PWs)   bands (ev):

   -16.0110 -12.2097  -6.7415  -3.6608   2.3377   7.0560   7.9584   9.5346

          k = 0.0000-0.5774 0.0000 (  1224 PWs)   bands (ev):

   -14.7404 -13.7230  -6.9048  -2.8136   1.2359   6.9792  10.3391  10.4330

          k = 0.0833 0.1443 0.0000 (  1253 PWs)   bands (ev):

   -19.5037  -7.5064  -5.2005  -4.5367   3.0029   4.6772   5.5739   8.2535

          k = 0.0833 0.2406 0.0000 (  1242 PWs)   bands (ev):

   -18.8528  -6.9084  -6.7365  -5.5367   3.9054   5.5606   6.4582   7.6798

          k = 0.0833 0.3368 0.0000 (  1241 PWs)   bands (ev):

   -17.8870  -8.9831  -6.4242  -5.6177   5.2561   5.4966   6.9127   7.7404

          k = 0.0833 0.4330 0.0000 (  1230 PWs)   bands (ev):

   -16.6250 -11.1080  -7.0602  -4.2341   3.2879   7.0454   7.8867   8.6399

          k = 0.0833 0.5292 0.0000 (  1230 PWs)   bands (ev):

   -15.1418 -13.0532  -7.3896  -2.9209   1.5134   7.7166   9.2833  10.7251

          k = 0.1667 0.2887 0.0000 (  1247 PWs)   bands (ev):

   -18.0474  -8.2381  -6.9017  -5.7971   5.0321   5.9550   6.6534   7.5607

          k = 0.1667 0.3849 0.0000 (  1240 PWs)   bands (ev):

   -16.9382  -9.9667  -7.9589  -4.5405   4.0009   6.6036   8.1501   9.0829

          k = 0.1667 0.4811 0.0000 (  1235 PWs)   bands (ev):

   -15.5602 -11.8803  -8.5349  -3.1096   2.0821   8.6052   9.6139   9.9345

          k = 0.1667 0.5774 0.0000 (  1224 PWs)   bands (ev):

   -14.3195 -13.3216  -8.7194  -2.2139   1.0105   9.5231  10.9416  11.0746

          k = 0.2500 0.4330 0.0000 (  1242 PWs)   bands (ev):

   -15.7085 -10.9997  -9.4465  -3.1942   2.3817   8.3850   9.6197  10.8118

          k = 0.2500 0.5292 0.0000 (  1235 PWs)   bands (ev):

   -14.2830 -12.4242 -10.1540  -1.8043   0.8568  10.4287  10.5531  11.7721

          k = 0.3333 0.5774 0.0000 (  1230 PWs)   bands (ev):

   -13.0628 -13.0628 -11.0569  -0.4442  -0.4442  10.1646  12.3532  12.3544

     the Fermi energy is    -0.4063 ev

!    total energy              =     -23.90805671 Ry
     estimated scf accuracy    <       0.00000059 Ry
     smearing contrib. (-TS)   =      -0.00018232 Ry
     internal energy E=F+TS    =     -23.90787438 Ry

     The total energy is F=E-TS. E is the sum of the following terms:
     one-electron contribution =     -90.80463302 Ry
     hartree contribution      =      47.24012353 Ry
     xc contribution           =      -8.30641415 Ry
     ewald contribution        =      27.96304926 Ry

     convergence has been achieved in   6 iterations

     Writing all to output data dir ../tmp/gr.save/

     init_run     :      0.33s CPU      0.34s WALL (       1 calls)
     electrons    :      1.99s CPU      2.45s WALL (       1 calls)

     Called by init_run:
     wfcinit      :      0.13s CPU      0.14s WALL (       1 calls)
     potinit      :      0.01s CPU      0.02s WALL (       1 calls)
     hinit0       :      0.18s CPU      0.18s WALL (       1 calls)

     Called by electrons:
     c_bands      :      1.74s CPU      2.15s WALL (       6 calls)
     sum_band     :      0.19s CPU      0.19s WALL (       6 calls)
     v_of_rho     :      0.04s CPU      0.04s WALL (       7 calls)
     newd         :      0.02s CPU      0.02s WALL (       7 calls)
     mix_rho      :      0.00s CPU      0.00s WALL (       6 calls)

     Called by c_bands:
     init_us_2    :      0.03s CPU      0.03s WALL (     247 calls)
     init_us_2:cp :      0.03s CPU      0.03s WALL (     247 calls)
     cegterg      :      1.65s CPU      1.72s WALL (     114 calls)

     Called by *egterg:
     cdiaghg      :      0.04s CPU      0.05s WALL (    1021 calls)
     h_psi        :      1.35s CPU      1.41s WALL (    1040 calls)
     s_psi        :      0.06s CPU      0.06s WALL (    1040 calls)
     g_psi        :      0.01s CPU      0.01s WALL (     907 calls)

     Called by h_psi:
     h_psi:calbec :      0.06s CPU      0.07s WALL (    1040 calls)
     vloc_psi     :      1.22s CPU      1.27s WALL (    1040 calls)
     add_vuspsi   :      0.06s CPU      0.06s WALL (    1040 calls)

     General routines
     calbec       :      0.08s CPU      0.08s WALL (    1154 calls)
     fft          :      0.12s CPU      0.12s WALL (      77 calls)
     ffts         :      0.00s CPU      0.00s WALL (       6 calls)
     fftw         :      1.25s CPU      1.30s WALL (    9014 calls)


     PWSCF        :      2.35s CPU      3.32s WALL


   This run was terminated on:   1:49:58  24Aug2023            

=------------------------------------------------------------------------------=
   JOB DONE.
=------------------------------------------------------------------------------=
