
     Program PWSCF v.7.0 starts on 24Aug2023 at  0:38:10 

     This program is part of the open-source Quantum ESPRESSO suite
     for quantum simulation of materials; please cite
         "P. Giannozzi et al., J. Phys.:Condens. Matter 21 395502 (2009);
         "P. Giannozzi et al., J. Phys.:Condens. Matter 29 465901 (2017);
         "P. Giannozzi et al., J. Chem. Phys. 152 154105 (2020);
          URL http://www.quantum-espresso.org", 
     in publications or presentations arising from this work. More details at
     http://www.quantum-espresso.org/quote

     Serial version
     5472 MiB available memory on the printing compute node when the environment starts

     Waiting for input...
     Reading input from standard input

     Current dimensions of program PWSCF are:
     Max number of different atomic species (ntypx) = 10
     Max number of k-points (npk) =  40000
     Max angular momentum in pseudopotentials (lmaxx) =  4

     G-vector sticks info
     --------------------
     sticks:   dense  smooth     PW     G-vecs:    dense   smooth      PW
     Sum         313     313    109                19373    19373    3447

     Using Slab Decomposition



     bravais-lattice index     =            4
     lattice parameter (alat)  =       4.6531  a.u.
     unit-cell volume          =     354.3310 (a.u.)^3
     number of atoms/cell      =            2
     number of atomic types    =            1
     number of electrons       =         8.00
     number of Kohn-Sham states=            8
     kinetic-energy cutoff     =      55.0000  Ry
     charge density cutoff     =     220.0000  Ry
     scf convergence threshold =      1.0E-06
     mixing beta               =       0.7000
     number of iterations used =            8  plain     mixing
     Exchange-correlation= PBE
                           (   1   4   3   4   0   0   0)

     celldm(1)=   4.653073  celldm(2)=   0.000000  celldm(3)=   4.061244
     celldm(4)=   0.000000  celldm(5)=   0.000000  celldm(6)=   0.000000

     crystal axes: (cart. coord. in units of alat)
               a(1) = (   1.000000   0.000000   0.000000 )  
               a(2) = (  -0.500000   0.866025   0.000000 )  
               a(3) = (   0.000000   0.000000   4.061244 )  

     reciprocal axes: (cart. coord. in units 2 pi/alat)
               b(1) = (  1.000000  0.577350 -0.000000 )  
               b(2) = (  0.000000  1.154701  0.000000 )  
               b(3) = (  0.000000 -0.000000  0.246230 )  


     PseudoPot. # 1 for C  read from file:
     ../pseudo/C.pbe-n-rrkjus_psl.0.1.UPF
     MD5 check sum: 96a6a315177d77e6c95bf6fd3870f9e3
     Pseudo is Ultrasoft + core correction, Zval =  4.0
     Generated using &quot;atomic&quot; code by A. Dal Corso  v.6.3MaX
     Using radial grid of 1073 points,  4 beta functions with: 
                l(1) =   0
                l(2) =   0
                l(3) =   1
                l(4) =   1
     Q(r) pseudized with 0 coefficients 


     atomic species   valence    mass     pseudopotential
        C              4.00    12.01070     C ( 1.00)

     24 Sym. Ops., with inversion, found



   Cartesian axes

     site n.     atom                  positions (alat units)
         1           C   tau(   1) = (   0.0000000   0.5773503   2.0306218  )
         2           C   tau(   2) = (   0.5000000   0.2886751   2.0306218  )

     number of k points=    19  Marzari-Vanderbilt smearing, width (Ry)=  0.0200
                       cart. coord. in units 2pi/alat
        k(    1) = (   0.0000000   0.0000000   0.0000000), wk =   0.0138889
        k(    2) = (   0.0000000   0.0962250   0.0000000), wk =   0.0833333
        k(    3) = (   0.0000000   0.1924501   0.0000000), wk =   0.0833333
        k(    4) = (   0.0000000   0.2886751   0.0000000), wk =   0.0833333
        k(    5) = (   0.0000000   0.3849002   0.0000000), wk =   0.0833333
        k(    6) = (   0.0000000   0.4811252   0.0000000), wk =   0.0833333
        k(    7) = (   0.0000000  -0.5773503   0.0000000), wk =   0.0416667
        k(    8) = (   0.0833333   0.1443376   0.0000000), wk =   0.0833333
        k(    9) = (   0.0833333   0.2405626   0.0000000), wk =   0.1666667
        k(   10) = (   0.0833333   0.3367877   0.0000000), wk =   0.1666667
        k(   11) = (   0.0833333   0.4330127   0.0000000), wk =   0.1666667
        k(   12) = (   0.0833333   0.5292377   0.0000000), wk =   0.1666667
        k(   13) = (   0.1666667   0.2886751   0.0000000), wk =   0.0833333
        k(   14) = (   0.1666667   0.3849002   0.0000000), wk =   0.1666667
        k(   15) = (   0.1666667   0.4811252   0.0000000), wk =   0.1666667
        k(   16) = (   0.1666667   0.5773503   0.0000000), wk =   0.0833333
        k(   17) = (   0.2500000   0.4330127   0.0000000), wk =   0.0833333
        k(   18) = (   0.2500000   0.5292377   0.0000000), wk =   0.1666667
        k(   19) = (   0.3333333   0.5773503   0.0000000), wk =   0.0277778

     Dense  grid:    19373 G-vectors     FFT dimensions: (  24,  24,  90)

     Estimated max dynamical RAM per process >      31.81 MB

     Check: negative core charge=   -0.000002

     Initial potential from superposition of free atoms

     starting charge       7.9999, renormalised to       8.0000

     negative rho (up, down):  4.743E-05 0.000E+00
     Starting wfcs are    8 randomized atomic wfcs

     total cpu time spent up to now is        0.6 secs

     Self-consistent Calculation

     iteration #  1     ecut=    55.00 Ry     beta= 0.70
     Davidson diagonalization with overlap
     ethr =  1.00E-02,  avg # of iterations =  7.8

     Threshold (ethr) on eigenvalues was too large:
     Diagonalizing with lowered threshold

     Davidson diagonalization with overlap
     ethr =  9.84E-04,  avg # of iterations =  5.3

     negative rho (up, down):  1.409E-08 0.000E+00

     total cpu time spent up to now is        2.1 secs

     total energy              =     -23.88098312 Ry
     estimated scf accuracy    <       0.19141150 Ry

     iteration #  2     ecut=    55.00 Ry     beta= 0.70
     Davidson diagonalization with overlap
     ethr =  2.39E-03,  avg # of iterations =  2.5

     negative rho (up, down):  3.819E-06 0.000E+00

     total cpu time spent up to now is        2.6 secs

     total energy              =     -23.89130977 Ry
     estimated scf accuracy    <       0.00625137 Ry

     iteration #  3     ecut=    55.00 Ry     beta= 0.70
     Davidson diagonalization with overlap
     c_bands:  1 eigenvalues not converged
     c_bands:  2 eigenvalues not converged
     c_bands:  2 eigenvalues not converged
     c_bands:  2 eigenvalues not converged
     c_bands:  1 eigenvalues not converged
     c_bands:  1 eigenvalues not converged
     c_bands:  1 eigenvalues not converged
     ethr =  7.81E-05,  avg # of iterations = 16.7

     negative rho (up, down):  3.486E-06 0.000E+00

     total cpu time spent up to now is        4.3 secs

     total energy              =     -23.91396595 Ry
     estimated scf accuracy    <       0.00794680 Ry

     iteration #  4     ecut=    55.00 Ry     beta= 0.70
     Davidson diagonalization with overlap
     ethr =  7.81E-05,  avg # of iterations =  2.7

     negative rho (up, down):  7.943E-06 0.000E+00

     total cpu time spent up to now is        4.9 secs

     total energy              =     -23.91761226 Ry
     estimated scf accuracy    <       0.01073639 Ry

     iteration #  5     ecut=    55.00 Ry     beta= 0.70
     Davidson diagonalization with overlap
     ethr =  7.81E-05,  avg # of iterations =  1.3

     negative rho (up, down):  1.682E-05 0.000E+00

     total cpu time spent up to now is        5.4 secs

     total energy              =     -23.90975793 Ry
     estimated scf accuracy    <       0.01634296 Ry

     iteration #  6     ecut=    55.00 Ry     beta= 0.70
     Davidson diagonalization with overlap
     ethr =  7.81E-05,  avg # of iterations =  1.9

     negative rho (up, down):  1.901E-05 0.000E+00

     total cpu time spent up to now is        5.8 secs

     total energy              =     -23.90997828 Ry
     estimated scf accuracy    <       0.00410927 Ry

     iteration #  7     ecut=    55.00 Ry     beta= 0.70
     Davidson diagonalization with overlap
     ethr =  5.14E-05,  avg # of iterations =  1.5

     negative rho (up, down):  1.779E-05 0.000E+00

     total cpu time spent up to now is        6.3 secs

     total energy              =     -23.91037798 Ry
     estimated scf accuracy    <       0.00270598 Ry

     iteration #  8     ecut=    55.00 Ry     beta= 0.70
     Davidson diagonalization with overlap
     ethr =  3.38E-05,  avg # of iterations =  2.1

     negative rho (up, down):  1.780E-05 0.000E+00

     total cpu time spent up to now is        6.8 secs

     total energy              =     -23.91045661 Ry
     estimated scf accuracy    <       0.00285209 Ry

     iteration #  9     ecut=    55.00 Ry     beta= 0.70
     Davidson diagonalization with overlap
     ethr =  3.38E-05,  avg # of iterations =  1.2

     negative rho (up, down):  1.799E-05 0.000E+00

     total cpu time spent up to now is        7.2 secs

     total energy              =     -23.91046152 Ry
     estimated scf accuracy    <       0.00273538 Ry

     iteration # 10     ecut=    55.00 Ry     beta= 0.70
     Davidson diagonalization with overlap
     ethr =  3.38E-05,  avg # of iterations =  1.1

     negative rho (up, down):  1.361E-05 0.000E+00

     total cpu time spent up to now is        7.7 secs

     total energy              =     -23.91147186 Ry
     estimated scf accuracy    <       0.00263462 Ry

     iteration # 11     ecut=    55.00 Ry     beta= 0.70
     Davidson diagonalization with overlap
     ethr =  3.29E-05,  avg # of iterations =  1.2

     negative rho (up, down):  7.634E-05 0.000E+00

     total cpu time spent up to now is        8.2 secs

     total energy              =     -23.90884825 Ry
     estimated scf accuracy    <       0.00445669 Ry

     iteration # 12     ecut=    55.00 Ry     beta= 0.70
     Davidson diagonalization with overlap
     ethr =  3.29E-05,  avg # of iterations =  6.1

     negative rho (up, down):  6.249E-05 0.000E+00

     total cpu time spent up to now is        8.8 secs

     total energy              =     -23.90989063 Ry
     estimated scf accuracy    <       0.00126895 Ry

     iteration # 13     ecut=    55.00 Ry     beta= 0.70
     Davidson diagonalization with overlap
     ethr =  1.59E-05,  avg # of iterations =  2.2

     negative rho (up, down):  6.257E-05 0.000E+00

     total cpu time spent up to now is        9.3 secs

     total energy              =     -23.91004813 Ry
     estimated scf accuracy    <       0.00089293 Ry

     iteration # 14     ecut=    55.00 Ry     beta= 0.70
     Davidson diagonalization with overlap
     ethr =  1.12E-05,  avg # of iterations =  1.9

     negative rho (up, down):  7.711E-05 0.000E+00

     total cpu time spent up to now is        9.8 secs

     total energy              =     -23.91036878 Ry
     estimated scf accuracy    <       0.00099385 Ry

     iteration # 15     ecut=    55.00 Ry     beta= 0.70
     Davidson diagonalization with overlap
     c_bands:  1 eigenvalues not converged
     ethr =  1.12E-05,  avg # of iterations =  2.6

     negative rho (up, down):  3.587E-05 0.000E+00

     total cpu time spent up to now is       10.3 secs

     total energy              =     -23.90954187 Ry
     estimated scf accuracy    <       0.00153601 Ry

     iteration # 16     ecut=    55.00 Ry     beta= 0.70
     Davidson diagonalization with overlap
     ethr =  1.12E-05,  avg # of iterations =  1.8

     negative rho (up, down):  3.307E-05 0.000E+00

     total cpu time spent up to now is       10.8 secs

     total energy              =     -23.90955145 Ry
     estimated scf accuracy    <       0.00014101 Ry

     iteration # 17     ecut=    55.00 Ry     beta= 0.70
     Davidson diagonalization with overlap
     ethr =  1.76E-06,  avg # of iterations =  7.3

     negative rho (up, down):  3.350E-05 0.000E+00

     total cpu time spent up to now is       11.6 secs

     total energy              =     -23.90964923 Ry
     estimated scf accuracy    <       0.00000406 Ry

     iteration # 18     ecut=    55.00 Ry     beta= 0.70
     Davidson diagonalization with overlap
     ethr =  5.08E-08,  avg # of iterations =  5.3

     negative rho (up, down):  4.357E-05 0.000E+00

     total cpu time spent up to now is       12.3 secs

     total energy              =     -23.90969061 Ry
     estimated scf accuracy    <       0.00000440 Ry

     iteration # 19     ecut=    55.00 Ry     beta= 0.70
     Davidson diagonalization with overlap
     ethr =  5.08E-08,  avg # of iterations =  5.2

     negative rho (up, down):  4.133E-05 0.000E+00

     total cpu time spent up to now is       13.0 secs

     total energy              =     -23.90968382 Ry
     estimated scf accuracy    <       0.00010231 Ry

     iteration # 20     ecut=    55.00 Ry     beta= 0.70
     Davidson diagonalization with overlap
     ethr =  5.08E-08,  avg # of iterations =  1.6

     negative rho (up, down):  3.945E-05 0.000E+00

     total cpu time spent up to now is       13.5 secs

     total energy              =     -23.90966317 Ry
     estimated scf accuracy    <       0.00005667 Ry

     iteration # 21     ecut=    55.00 Ry     beta= 0.70
     Davidson diagonalization with overlap
     ethr =  5.08E-08,  avg # of iterations =  4.2

     negative rho (up, down):  3.933E-05 0.000E+00

     total cpu time spent up to now is       14.1 secs

     total energy              =     -23.90966786 Ry
     estimated scf accuracy    <       0.00001075 Ry

     iteration # 22     ecut=    55.00 Ry     beta= 0.70
     Davidson diagonalization with overlap
     ethr =  5.08E-08,  avg # of iterations =  1.5

     negative rho (up, down):  3.912E-05 0.000E+00

     total cpu time spent up to now is       14.6 secs

     total energy              =     -23.90966810 Ry
     estimated scf accuracy    <       0.00001033 Ry

     iteration # 23     ecut=    55.00 Ry     beta= 0.70
     Davidson diagonalization with overlap
     ethr =  5.08E-08,  avg # of iterations =  1.0

     negative rho (up, down):  3.918E-05 0.000E+00

     total cpu time spent up to now is       15.1 secs

     total energy              =     -23.90966809 Ry
     estimated scf accuracy    <       0.00001052 Ry

     iteration # 24     ecut=    55.00 Ry     beta= 0.70
     Davidson diagonalization with overlap
     ethr =  5.08E-08,  avg # of iterations =  1.0

     negative rho (up, down):  3.975E-05 0.000E+00

     total cpu time spent up to now is       15.5 secs

     total energy              =     -23.90966734 Ry
     estimated scf accuracy    <       0.00001032 Ry

     iteration # 25     ecut=    55.00 Ry     beta= 0.70
     Davidson diagonalization with overlap
     ethr =  5.08E-08,  avg # of iterations =  1.1

     negative rho (up, down):  3.996E-05 0.000E+00

     total cpu time spent up to now is       16.0 secs

     total energy              =     -23.90966985 Ry
     estimated scf accuracy    <       0.00000856 Ry

     iteration # 26     ecut=    55.00 Ry     beta= 0.70
     Davidson diagonalization with overlap
     ethr =  5.08E-08,  avg # of iterations =  1.0

     negative rho (up, down):  3.825E-05 0.000E+00

     total cpu time spent up to now is       16.4 secs

     total energy              =     -23.90966240 Ry
     estimated scf accuracy    <       0.00001321 Ry

     iteration # 27     ecut=    55.00 Ry     beta= 0.70
     Davidson diagonalization with overlap
     ethr =  5.08E-08,  avg # of iterations =  1.9

     negative rho (up, down):  3.711E-05 0.000E+00

     total cpu time spent up to now is       16.9 secs

     End of self-consistent calculation

          k = 0.0000 0.0000 0.0000 (  2469 PWs)   bands (ev):

   -19.9947  -8.0933  -3.5194  -3.5194   2.6265   4.2437   5.3514   7.8782

          k = 0.0000 0.0962 0.0000 (  2477 PWs)   bands (ev):

   -19.8306  -7.8967  -4.1688  -3.8586   2.8508   4.4658   5.5718   7.9510

          k = 0.0000 0.1925 0.0000 (  2467 PWs)   bands (ev):

   -19.3400  -7.3124  -5.8045  -4.6525   3.5237   5.1292   6.2330   7.9139

          k = 0.0000 0.2887 0.0000 (  2460 PWs)   bands (ev):

   -18.5287  -7.9022  -6.3594  -5.5341   4.6434   6.1785   6.8904   7.2876

          k = 0.0000 0.3849 0.0000 (  2442 PWs)   bands (ev):

   -17.4087 -10.1063  -6.2689  -5.0880   4.4783   6.2011   7.3002   7.8023

          k = 0.0000 0.4811 0.0000 (  2428 PWs)   bands (ev):

   -16.0106 -12.2086  -6.7427  -3.6617   2.3361   7.0508   8.2223   9.7405

          k = 0.0000-0.5774 0.0000 (  2400 PWs)   bands (ev):

   -14.7401 -13.7217  -6.9054  -2.8146   1.2348   6.9737  10.5539  10.6926

          k = 0.0833 0.1443 0.0000 (  2461 PWs)   bands (ev):

   -19.5032  -7.5061  -5.2008  -4.5371   3.2996   4.9089   6.0140   8.2512

          k = 0.0833 0.2406 0.0000 (  2446 PWs)   bands (ev):

   -18.8523  -6.9092  -6.7363  -5.5367   4.1966   5.7873   6.8968   7.6772

          k = 0.0833 0.3368 0.0000 (  2447 PWs)   bands (ev):

   -17.8865  -8.9824  -6.4242  -5.6177   5.4962   5.5383   7.1307   8.0456

          k = 0.0833 0.4330 0.0000 (  2431 PWs)   bands (ev):

   -16.6245 -11.1068  -7.0599  -4.2347   3.2865   7.3060   7.8947   8.8487

          k = 0.0833 0.5292 0.0000 (  2409 PWs)   bands (ev):

   -15.1413 -13.0519  -7.3888  -2.9218   1.5122   7.7106   9.5324  10.9049

          k = 0.1667 0.2887 0.0000 (  2431 PWs)   bands (ev):

   -18.0468  -8.2376  -6.9009  -5.7969   5.3164   5.9522   6.8749   8.0057

          k = 0.1667 0.3849 0.0000 (  2453 PWs)   bands (ev):

   -16.9377  -9.9657  -7.9580  -4.5408   3.9984   6.8762   8.3549   9.4989

          k = 0.1667 0.4811 0.0000 (  2432 PWs)   bands (ev):

   -15.5596 -11.8791  -8.5337  -3.1103   2.0803   8.8544   9.6173  10.0989

          k = 0.1667 0.5774 0.0000 (  2418 PWs)   bands (ev):

   -14.3191 -13.3204  -8.7184  -2.2150   1.0089   9.5173  11.1326  11.2416

          k = 0.2500 0.4330 0.0000 (  2435 PWs)   bands (ev):

   -15.7078 -10.9986  -9.4450  -3.1947   2.3796   8.6402   9.7726  11.2483

          k = 0.2500 0.5292 0.0000 (  2442 PWs)   bands (ev):

   -14.2823 -12.4231 -10.1527  -1.8053   0.8552  10.4667  10.7656  11.7779

          k = 0.3333 0.5774 0.0000 (  2454 PWs)   bands (ev):

   -13.0621 -13.0621 -11.0553  -0.4458  -0.4458  10.1801  12.4226  12.4230

     the Fermi energy is    -0.4079 ev

!    total energy              =     -23.90966280 Ry
     estimated scf accuracy    <       0.00000067 Ry
     smearing contrib. (-TS)   =      -0.00018232 Ry
     internal energy E=F+TS    =     -23.90948048 Ry

     The total energy is F=E-TS. E is the sum of the following terms:
     one-electron contribution =     -90.80831982 Ry
     hartree contribution      =      47.24300771 Ry
     xc contribution           =      -8.30721761 Ry
     ewald contribution        =      27.96304925 Ry

     convergence has been achieved in  27 iterations

     Writing all to output data dir ../tmp/gr.save/

     init_run     :      0.42s CPU      0.46s WALL (       1 calls)
     electrons    :     14.17s CPU     16.35s WALL (       1 calls)

     Called by init_run:
     wfcinit      :      0.19s CPU      0.20s WALL (       1 calls)
     potinit      :      0.02s CPU      0.03s WALL (       1 calls)
     hinit0       :      0.20s CPU      0.20s WALL (       1 calls)

     Called by electrons:
     c_bands      :     11.63s CPU     13.65s WALL (      28 calls)
     sum_band     :      1.90s CPU      1.92s WALL (      28 calls)
     v_of_rho     :      0.36s CPU      0.37s WALL (      28 calls)
     newd         :      0.18s CPU      0.20s WALL (      28 calls)
     mix_rho      :      0.08s CPU      0.08s WALL (      28 calls)

     Called by c_bands:
     init_us_2    :      0.25s CPU      0.25s WALL (    1083 calls)
     init_us_2:cp :      0.24s CPU      0.25s WALL (    1083 calls)
     cegterg      :     11.05s CPU     11.26s WALL (     532 calls)

     Called by *egterg:
     cdiaghg      :      0.11s CPU      0.11s WALL (    2237 calls)
     h_psi        :      9.01s CPU      9.21s WALL (    2275 calls)
     s_psi        :      0.39s CPU      0.39s WALL (    2275 calls)
     g_psi        :      0.06s CPU      0.06s WALL (    1724 calls)

     Called by h_psi:
     h_psi:calbec :      0.40s CPU      0.41s WALL (    2275 calls)
     vloc_psi     :      8.19s CPU      8.37s WALL (    2275 calls)
     add_vuspsi   :      0.39s CPU      0.39s WALL (    2275 calls)

     General routines
     calbec       :      0.54s CPU      0.54s WALL (    2807 calls)
     fft          :      0.27s CPU      0.27s WALL (     309 calls)
     ffts         :      0.02s CPU      0.02s WALL (      28 calls)
     fftw         :      8.80s CPU      8.97s WALL (   28432 calls)


     PWSCF        :     14.66s CPU     17.56s WALL


   This run was terminated on:   0:38:28  24Aug2023            

=------------------------------------------------------------------------------=
   JOB DONE.
=------------------------------------------------------------------------------=
