
     Program PWSCF v.7.0 starts on 24Aug2023 at  0:37:35 

     This program is part of the open-source Quantum ESPRESSO suite
     for quantum simulation of materials; please cite
         "P. Giannozzi et al., J. Phys.:Condens. Matter 21 395502 (2009);
         "P. Giannozzi et al., J. Phys.:Condens. Matter 29 465901 (2017);
         "P. Giannozzi et al., J. Chem. Phys. 152 154105 (2020);
          URL http://www.quantum-espresso.org", 
     in publications or presentations arising from this work. More details at
     http://www.quantum-espresso.org/quote

     Serial version
     5472 MiB available memory on the printing compute node when the environment starts

     Waiting for input...
     Reading input from standard input

     Current dimensions of program PWSCF are:
     Max number of different atomic species (ntypx) = 10
     Max number of k-points (npk) =  40000
     Max angular momentum in pseudopotentials (lmaxx) =  4

     G-vector sticks info
     --------------------
     sticks:   dense  smooth     PW     G-vecs:    dense   smooth      PW
     Sum         127     127     43                 4899     4899    1011

     Using Slab Decomposition



     bravais-lattice index     =            4
     lattice parameter (alat)  =       4.6531  a.u.
     unit-cell volume          =     354.3310 (a.u.)^3
     number of atoms/cell      =            2
     number of atomic types    =            1
     number of electrons       =         8.00
     number of Kohn-Sham states=            8
     kinetic-energy cutoff     =      22.0000  Ry
     charge density cutoff     =      88.0000  Ry
     scf convergence threshold =      1.0E-06
     mixing beta               =       0.7000
     number of iterations used =            8  plain     mixing
     Exchange-correlation= PBE
                           (   1   4   3   4   0   0   0)

     celldm(1)=   4.653073  celldm(2)=   0.000000  celldm(3)=   4.061244
     celldm(4)=   0.000000  celldm(5)=   0.000000  celldm(6)=   0.000000

     crystal axes: (cart. coord. in units of alat)
               a(1) = (   1.000000   0.000000   0.000000 )  
               a(2) = (  -0.500000   0.866025   0.000000 )  
               a(3) = (   0.000000   0.000000   4.061244 )  

     reciprocal axes: (cart. coord. in units 2 pi/alat)
               b(1) = (  1.000000  0.577350 -0.000000 )  
               b(2) = (  0.000000  1.154701  0.000000 )  
               b(3) = (  0.000000 -0.000000  0.246230 )  


     PseudoPot. # 1 for C  read from file:
     ../pseudo/C.pbe-n-rrkjus_psl.0.1.UPF
     MD5 check sum: 96a6a315177d77e6c95bf6fd3870f9e3
     Pseudo is Ultrasoft + core correction, Zval =  4.0
     Generated using &quot;atomic&quot; code by A. Dal Corso  v.6.3MaX
     Using radial grid of 1073 points,  4 beta functions with: 
                l(1) =   0
                l(2) =   0
                l(3) =   1
                l(4) =   1
     Q(r) pseudized with 0 coefficients 


     atomic species   valence    mass     pseudopotential
        C              4.00    12.01070     C ( 1.00)

     24 Sym. Ops., with inversion, found



   Cartesian axes

     site n.     atom                  positions (alat units)
         1           C   tau(   1) = (   0.0000000   0.5773503   2.0306218  )
         2           C   tau(   2) = (   0.5000000   0.2886751   2.0306218  )

     number of k points=    19  Marzari-Vanderbilt smearing, width (Ry)=  0.0200
                       cart. coord. in units 2pi/alat
        k(    1) = (   0.0000000   0.0000000   0.0000000), wk =   0.0138889
        k(    2) = (   0.0000000   0.0962250   0.0000000), wk =   0.0833333
        k(    3) = (   0.0000000   0.1924501   0.0000000), wk =   0.0833333
        k(    4) = (   0.0000000   0.2886751   0.0000000), wk =   0.0833333
        k(    5) = (   0.0000000   0.3849002   0.0000000), wk =   0.0833333
        k(    6) = (   0.0000000   0.4811252   0.0000000), wk =   0.0833333
        k(    7) = (   0.0000000  -0.5773503   0.0000000), wk =   0.0416667
        k(    8) = (   0.0833333   0.1443376   0.0000000), wk =   0.0833333
        k(    9) = (   0.0833333   0.2405626   0.0000000), wk =   0.1666667
        k(   10) = (   0.0833333   0.3367877   0.0000000), wk =   0.1666667
        k(   11) = (   0.0833333   0.4330127   0.0000000), wk =   0.1666667
        k(   12) = (   0.0833333   0.5292377   0.0000000), wk =   0.1666667
        k(   13) = (   0.1666667   0.2886751   0.0000000), wk =   0.0833333
        k(   14) = (   0.1666667   0.3849002   0.0000000), wk =   0.1666667
        k(   15) = (   0.1666667   0.4811252   0.0000000), wk =   0.1666667
        k(   16) = (   0.1666667   0.5773503   0.0000000), wk =   0.0833333
        k(   17) = (   0.2500000   0.4330127   0.0000000), wk =   0.0833333
        k(   18) = (   0.2500000   0.5292377   0.0000000), wk =   0.1666667
        k(   19) = (   0.3333333   0.5773503   0.0000000), wk =   0.0277778

     Dense  grid:     4899 G-vectors     FFT dimensions: (  15,  15,  60)

     Estimated max dynamical RAM per process >       8.20 MB

     Check: negative core charge=   -0.000203

     Initial potential from superposition of free atoms

     starting charge       7.9999, renormalised to       8.0000

     negative rho (up, down):  4.656E-03 0.000E+00
     Starting wfcs are    8 randomized atomic wfcs

     total cpu time spent up to now is        0.3 secs

     Self-consistent Calculation

     iteration #  1     ecut=    22.00 Ry     beta= 0.70
     Davidson diagonalization with overlap
     ethr =  1.00E-02,  avg # of iterations =  7.8

     negative rho (up, down):  1.294E-03 0.000E+00

     total cpu time spent up to now is        0.6 secs

     total energy              =     -23.73172247 Ry
     estimated scf accuracy    <       0.14209581 Ry

     iteration #  2     ecut=    22.00 Ry     beta= 0.70
     Davidson diagonalization with overlap
     ethr =  1.78E-03,  avg # of iterations =  3.5

     negative rho (up, down):  6.214E-04 0.000E+00

     total cpu time spent up to now is        0.8 secs

     total energy              =     -23.74406808 Ry
     estimated scf accuracy    <       0.00318159 Ry

     iteration #  3     ecut=    22.00 Ry     beta= 0.70
     Davidson diagonalization with overlap
     ethr =  3.98E-05,  avg # of iterations = 10.1

     negative rho (up, down):  6.539E-04 0.000E+00

     total cpu time spent up to now is        1.0 secs

     total energy              =     -23.74571843 Ry
     estimated scf accuracy    <       0.00050363 Ry

     iteration #  4     ecut=    22.00 Ry     beta= 0.70
     Davidson diagonalization with overlap
     ethr =  6.30E-06,  avg # of iterations =  3.8

     negative rho (up, down):  6.343E-04 0.000E+00

     total cpu time spent up to now is        1.2 secs

     total energy              =     -23.74574764 Ry
     estimated scf accuracy    <       0.00042696 Ry

     iteration #  5     ecut=    22.00 Ry     beta= 0.70
     Davidson diagonalization with overlap
     ethr =  5.34E-06,  avg # of iterations =  2.1

     negative rho (up, down):  6.310E-04 0.000E+00

     total cpu time spent up to now is        1.4 secs

     total energy              =     -23.74580361 Ry
     estimated scf accuracy    <       0.00000210 Ry

     iteration #  6     ecut=    22.00 Ry     beta= 0.70
     Davidson diagonalization with overlap
     ethr =  2.63E-08,  avg # of iterations =  3.9

     negative rho (up, down):  6.347E-04 0.000E+00

     total cpu time spent up to now is        1.6 secs

     total energy              =     -23.74580575 Ry
     estimated scf accuracy    <       0.00000170 Ry

     iteration #  7     ecut=    22.00 Ry     beta= 0.70
     Davidson diagonalization with overlap
     ethr =  2.13E-08,  avg # of iterations =  2.0

     negative rho (up, down):  6.372E-04 0.000E+00

     total cpu time spent up to now is        1.7 secs

     End of self-consistent calculation

          k = 0.0000 0.0000 0.0000 (   629 PWs)   bands (ev):

   -20.4442  -8.1003  -3.5408  -3.5408   1.4105   3.1617   4.1237   8.3589

          k = 0.0000 0.0962 0.0000 (   632 PWs)   bands (ev):

   -20.2764  -7.9074  -4.2511  -3.9039   1.6380   3.3852   4.3456   8.3209

          k = 0.0000 0.1925 0.0000 (   634 PWs)   bands (ev):

   -19.7756  -7.3154  -5.9003  -4.6762   2.3204   4.0562   5.0123   7.9808

          k = 0.0000 0.2887 0.0000 (   638 PWs)   bands (ev):

   -18.9466  -8.0638  -6.3539  -5.6261   3.4573   5.1568   6.1207   7.2174

          k = 0.0000 0.3849 0.0000 (   622 PWs)   bands (ev):

   -17.7960 -10.2600  -6.3270  -5.0497   4.7828   5.0476   6.7813   7.0700

          k = 0.0000 0.4811 0.0000 (   612 PWs)   bands (ev):

   -16.3489 -12.4106  -6.7804  -3.5675   2.5265   6.7667   7.0906   8.7536

          k = 0.0000-0.5774 0.0000 (   606 PWs)   bands (ev):

   -15.0791 -13.8400  -6.9698  -2.6424   1.3216   6.6672   9.5574   9.5876

          k = 0.0833 0.1443 0.0000 (   635 PWs)   bands (ev):

   -19.9430  -7.5163  -5.2795  -4.6173   2.0929   3.8323   4.7902   8.4267

          k = 0.0833 0.2406 0.0000 (   630 PWs)   bands (ev):

   -19.2772  -7.0453  -6.7064  -5.6013   3.0028   4.7270   5.6802   8.1069

          k = 0.0833 0.3368 0.0000 (   628 PWs)   bands (ev):

   -18.2896  -9.1384  -6.4859  -5.6004   4.3662   5.7426   6.1867   7.0074

          k = 0.0833 0.4330 0.0000 (   609 PWs)   bands (ev):

   -16.9807 -11.2599  -7.1017  -4.1375   3.5777   6.1823   7.6818   7.8537

          k = 0.0833 0.5292 0.0000 (   605 PWs)   bands (ev):

   -15.4568 -13.2441  -7.4196  -2.7718   1.6750   7.4594   8.4445  10.0004

          k = 0.1667 0.2887 0.0000 (   621 PWs)   bands (ev):

   -18.4526  -8.3756  -6.9984  -5.7331   4.1393   5.8347   6.3052   6.7917

          k = 0.1667 0.3849 0.0000 (   618 PWs)   bands (ev):

   -17.3136 -10.1141  -8.0655  -4.4895   4.2680   5.7278   7.3550   8.3386

          k = 0.1667 0.4811 0.0000 (   602 PWs)   bands (ev):

   -15.8812 -12.0632  -8.6151  -2.9655   2.3061   7.7649   9.2368   9.5302

          k = 0.1667 0.5774 0.0000 (   602 PWs)   bands (ev):

   -14.6493 -13.5041  -8.8169  -1.9863   1.1830   9.4079  10.2072  10.2447

          k = 0.2500 0.4330 0.0000 (   599 PWs)   bands (ev):

   -16.0314 -11.1586  -9.5349  -3.0728   2.6416   7.5386   8.9339  10.0934

          k = 0.2500 0.5292 0.0000 (   604 PWs)   bands (ev):

   -14.5974 -12.6496 -10.2717  -1.6450   1.0352   9.7719  10.0473  11.8783

          k = 0.3333 0.5774 0.0000 (   606 PWs)   bands (ev):

   -13.3402 -13.3402 -11.1734  -0.3398  -0.3398   9.8380  12.0145  12.0148

     the Fermi energy is    -0.3019 ev

!    total energy              =     -23.74580588 Ry
     estimated scf accuracy    <       0.00000006 Ry
     smearing contrib. (-TS)   =      -0.00018232 Ry
     internal energy E=F+TS    =     -23.74562356 Ry

     The total energy is F=E-TS. E is the sum of the following terms:
     one-electron contribution =     -90.43368205 Ry
     hartree contribution      =      46.99115275 Ry
     xc contribution           =      -8.26614353 Ry
     ewald contribution        =      27.96304927 Ry

     convergence has been achieved in   7 iterations

     Writing all to output data dir ../tmp/gr.save/

     init_run     :      0.20s CPU      0.21s WALL (       1 calls)
     electrons    :      0.88s CPU      1.44s WALL (       1 calls)

     Called by init_run:
     wfcinit      :      0.07s CPU      0.07s WALL (       1 calls)
     potinit      :      0.01s CPU      0.01s WALL (       1 calls)
     hinit0       :      0.12s CPU      0.12s WALL (       1 calls)

     Called by electrons:
     c_bands      :      0.75s CPU      1.22s WALL (       7 calls)
     sum_band     :      0.09s CPU      0.10s WALL (       7 calls)
     v_of_rho     :      0.03s CPU      0.03s WALL (       8 calls)
     newd         :      0.01s CPU      0.01s WALL (       8 calls)
     mix_rho      :      0.00s CPU      0.00s WALL (       7 calls)

     Called by c_bands:
     init_us_2    :      0.02s CPU      0.02s WALL (     285 calls)
     init_us_2:cp :      0.02s CPU      0.02s WALL (     285 calls)
     cegterg      :      0.68s CPU      0.74s WALL (     133 calls)

     Called by *egterg:
     cdiaghg      :      0.03s CPU      0.03s WALL (     764 calls)
     h_psi        :      0.55s CPU      0.59s WALL (     783 calls)
     s_psi        :      0.03s CPU      0.03s WALL (     783 calls)
     g_psi        :      0.00s CPU      0.00s WALL (     631 calls)

     Called by h_psi:
     h_psi:calbec :      0.03s CPU      0.03s WALL (     783 calls)
     vloc_psi     :      0.49s CPU      0.52s WALL (     783 calls)
     add_vuspsi   :      0.03s CPU      0.03s WALL (     783 calls)

     General routines
     calbec       :      0.04s CPU      0.04s WALL (     916 calls)
     fft          :      0.07s CPU      0.07s WALL (      88 calls)
     ffts         :      0.00s CPU      0.00s WALL (       7 calls)
     fftw         :      0.49s CPU      0.53s WALL (    8322 calls)


     PWSCF        :      1.13s CPU      2.11s WALL


   This run was terminated on:   0:37:37  24Aug2023            

=------------------------------------------------------------------------------=
   JOB DONE.
=------------------------------------------------------------------------------=
