
     Program PWSCF v.7.0 starts on 24Aug2023 at  0:37:49 

     This program is part of the open-source Quantum ESPRESSO suite
     for quantum simulation of materials; please cite
         "P. Giannozzi et al., J. Phys.:Condens. Matter 21 395502 (2009);
         "P. Giannozzi et al., J. Phys.:Condens. Matter 29 465901 (2017);
         "P. Giannozzi et al., J. Chem. Phys. 152 154105 (2020);
          URL http://www.quantum-espresso.org", 
     in publications or presentations arising from this work. More details at
     http://www.quantum-espresso.org/quote

     Serial version
     5472 MiB available memory on the printing compute node when the environment starts

     Waiting for input...
     Reading input from standard input

     Current dimensions of program PWSCF are:
     Max number of different atomic species (ntypx) = 10
     Max number of k-points (npk) =  40000
     Max angular momentum in pseudopotentials (lmaxx) =  4

     G-vector sticks info
     --------------------
     sticks:   dense  smooth     PW     G-vecs:    dense   smooth      PW
     Sum         241     241     85                12161    12161    2287

     Using Slab Decomposition



     bravais-lattice index     =            4
     lattice parameter (alat)  =       4.6531  a.u.
     unit-cell volume          =     354.3310 (a.u.)^3
     number of atoms/cell      =            2
     number of atomic types    =            1
     number of electrons       =         8.00
     number of Kohn-Sham states=            8
     kinetic-energy cutoff     =      40.0000  Ry
     charge density cutoff     =     160.0000  Ry
     scf convergence threshold =      1.0E-06
     mixing beta               =       0.7000
     number of iterations used =            8  plain     mixing
     Exchange-correlation= PBE
                           (   1   4   3   4   0   0   0)

     celldm(1)=   4.653073  celldm(2)=   0.000000  celldm(3)=   4.061244
     celldm(4)=   0.000000  celldm(5)=   0.000000  celldm(6)=   0.000000

     crystal axes: (cart. coord. in units of alat)
               a(1) = (   1.000000   0.000000   0.000000 )  
               a(2) = (  -0.500000   0.866025   0.000000 )  
               a(3) = (   0.000000   0.000000   4.061244 )  

     reciprocal axes: (cart. coord. in units 2 pi/alat)
               b(1) = (  1.000000  0.577350 -0.000000 )  
               b(2) = (  0.000000  1.154701  0.000000 )  
               b(3) = (  0.000000 -0.000000  0.246230 )  


     PseudoPot. # 1 for C  read from file:
     ../pseudo/C.pbe-n-rrkjus_psl.0.1.UPF
     MD5 check sum: 96a6a315177d77e6c95bf6fd3870f9e3
     Pseudo is Ultrasoft + core correction, Zval =  4.0
     Generated using &quot;atomic&quot; code by A. Dal Corso  v.6.3MaX
     Using radial grid of 1073 points,  4 beta functions with: 
                l(1) =   0
                l(2) =   0
                l(3) =   1
                l(4) =   1
     Q(r) pseudized with 0 coefficients 


     atomic species   valence    mass     pseudopotential
        C              4.00    12.01070     C ( 1.00)

     24 Sym. Ops., with inversion, found



   Cartesian axes

     site n.     atom                  positions (alat units)
         1           C   tau(   1) = (   0.0000000   0.5773503   2.0306218  )
         2           C   tau(   2) = (   0.5000000   0.2886751   2.0306218  )

     number of k points=    19  Marzari-Vanderbilt smearing, width (Ry)=  0.0200
                       cart. coord. in units 2pi/alat
        k(    1) = (   0.0000000   0.0000000   0.0000000), wk =   0.0138889
        k(    2) = (   0.0000000   0.0962250   0.0000000), wk =   0.0833333
        k(    3) = (   0.0000000   0.1924501   0.0000000), wk =   0.0833333
        k(    4) = (   0.0000000   0.2886751   0.0000000), wk =   0.0833333
        k(    5) = (   0.0000000   0.3849002   0.0000000), wk =   0.0833333
        k(    6) = (   0.0000000   0.4811252   0.0000000), wk =   0.0833333
        k(    7) = (   0.0000000  -0.5773503   0.0000000), wk =   0.0416667
        k(    8) = (   0.0833333   0.1443376   0.0000000), wk =   0.0833333
        k(    9) = (   0.0833333   0.2405626   0.0000000), wk =   0.1666667
        k(   10) = (   0.0833333   0.3367877   0.0000000), wk =   0.1666667
        k(   11) = (   0.0833333   0.4330127   0.0000000), wk =   0.1666667
        k(   12) = (   0.0833333   0.5292377   0.0000000), wk =   0.1666667
        k(   13) = (   0.1666667   0.2886751   0.0000000), wk =   0.0833333
        k(   14) = (   0.1666667   0.3849002   0.0000000), wk =   0.1666667
        k(   15) = (   0.1666667   0.4811252   0.0000000), wk =   0.1666667
        k(   16) = (   0.1666667   0.5773503   0.0000000), wk =   0.0833333
        k(   17) = (   0.2500000   0.4330127   0.0000000), wk =   0.0833333
        k(   18) = (   0.2500000   0.5292377   0.0000000), wk =   0.1666667
        k(   19) = (   0.3333333   0.5773503   0.0000000), wk =   0.0277778

     Dense  grid:    12161 G-vectors     FFT dimensions: (  20,  20,  80)

     Estimated max dynamical RAM per process >      19.96 MB

     Check: negative core charge=   -0.000021

     Initial potential from superposition of free atoms

     starting charge       7.9999, renormalised to       8.0000

     negative rho (up, down):  1.518E-05 0.000E+00
     Starting wfcs are    8 randomized atomic wfcs

     total cpu time spent up to now is        0.5 secs

     Self-consistent Calculation

     iteration #  1     ecut=    40.00 Ry     beta= 0.70
     Davidson diagonalization with overlap
     ethr =  1.00E-02,  avg # of iterations =  7.8

     negative rho (up, down):  2.482E-06 0.000E+00

     total cpu time spent up to now is        1.0 secs

     total energy              =     -23.85697327 Ry
     estimated scf accuracy    <       0.11538152 Ry

     iteration #  2     ecut=    40.00 Ry     beta= 0.70
     Davidson diagonalization with overlap
     ethr =  1.44E-03,  avg # of iterations =  4.6

     negative rho (up, down):  1.488E-04 0.000E+00

     total cpu time spent up to now is        1.3 secs

     total energy              =     -23.89661436 Ry
     estimated scf accuracy    <       0.01316277 Ry

     iteration #  3     ecut=    40.00 Ry     beta= 0.70
     Davidson diagonalization with overlap
     c_bands:  3 eigenvalues not converged
     c_bands:  1 eigenvalues not converged
     c_bands:  1 eigenvalues not converged
     ethr =  1.65E-04,  avg # of iterations = 13.9

     negative rho (up, down):  1.288E-04 0.000E+00

     total cpu time spent up to now is        2.0 secs

     total energy              =     -23.90837254 Ry
     estimated scf accuracy    <       0.00371310 Ry

     iteration #  4     ecut=    40.00 Ry     beta= 0.70
     Davidson diagonalization with overlap
     c_bands:  1 eigenvalues not converged
     ethr =  4.64E-05,  avg # of iterations =  6.3

     negative rho (up, down):  2.418E-04 0.000E+00

     total cpu time spent up to now is        2.4 secs

     total energy              =     -23.90873290 Ry
     estimated scf accuracy    <       0.00065952 Ry

     iteration #  5     ecut=    40.00 Ry     beta= 0.70
     Davidson diagonalization with overlap
     c_bands:  1 eigenvalues not converged
     ethr =  8.24E-06,  avg # of iterations =  8.2

     negative rho (up, down):  2.068E-04 0.000E+00

     total cpu time spent up to now is        2.9 secs

     total energy              =     -23.90907111 Ry
     estimated scf accuracy    <       0.00023849 Ry

     iteration #  6     ecut=    40.00 Ry     beta= 0.70
     Davidson diagonalization with overlap
     ethr =  2.98E-06,  avg # of iterations =  4.4

     negative rho (up, down):  2.054E-04 0.000E+00

     total cpu time spent up to now is        3.2 secs

     total energy              =     -23.90911148 Ry
     estimated scf accuracy    <       0.00000720 Ry

     iteration #  7     ecut=    40.00 Ry     beta= 0.70
     Davidson diagonalization with overlap
     ethr =  9.00E-08,  avg # of iterations =  5.4

     negative rho (up, down):  2.046E-04 0.000E+00

     total cpu time spent up to now is        3.6 secs

     End of self-consistent calculation

          k = 0.0000 0.0000 0.0000 (  1527 PWs)   bands (ev):

   -20.0011  -8.0982  -3.5270  -3.5270   2.3070   3.9963   4.8874   7.8741

          k = 0.0000 0.0962 0.0000 (  1532 PWs)   bands (ev):

   -19.8370  -7.9017  -4.1762  -3.8661   2.5328   4.2196   5.1076   7.9464

          k = 0.0000 0.1925 0.0000 (  1520 PWs)   bands (ev):

   -19.3464  -7.3173  -5.8119  -4.6600   3.2099   4.8854   5.7682   7.9074

          k = 0.0000 0.2887 0.0000 (  1520 PWs)   bands (ev):

   -18.5351  -7.9094  -6.3642  -5.5416   4.3372   5.9562   6.8519   6.8669

          k = 0.0000 0.3849 0.0000 (  1514 PWs)   bands (ev):

   -17.4151 -10.1133  -6.2766  -5.0929   4.4724   5.9094   7.2831   7.5705

          k = 0.0000 0.4811 0.0000 (  1512 PWs)   bands (ev):

   -16.0171 -12.2154  -6.7504  -3.6665   2.3312   7.0464   7.9412   9.5219

          k = 0.0000-0.5774 0.0000 (  1508 PWs)   bands (ev):

   -14.7467 -13.7283  -6.9131  -2.8193   1.2298   6.9702  10.3203  10.4213

          k = 0.0833 0.1443 0.0000 (  1523 PWs)   bands (ev):

   -19.5097  -7.5111  -5.2082  -4.5446   2.9843   4.6646   5.5493   8.2464

          k = 0.0833 0.2406 0.0000 (  1515 PWs)   bands (ev):

   -18.8587  -6.9165  -6.7412  -5.5442   3.8870   5.5470   6.4308   7.6709

          k = 0.0833 0.3368 0.0000 (  1514 PWs)   bands (ev):

   -17.8929  -8.9896  -6.4317  -5.6225   5.2382   5.4885   6.8995   7.7151

          k = 0.0833 0.4330 0.0000 (  1521 PWs)   bands (ev):

   -16.6309 -11.1137  -7.0675  -4.2394   3.2814   7.0283   7.8765   8.6282

          k = 0.0833 0.5292 0.0000 (  1513 PWs)   bands (ev):

   -15.1479 -13.0586  -7.3964  -2.9265   1.5074   7.7068   9.2669  10.7146

          k = 0.1667 0.2887 0.0000 (  1509 PWs)   bands (ev):

   -18.0532  -8.2450  -6.9082  -5.8017   5.0141   5.9472   6.6408   7.5353

          k = 0.1667 0.3849 0.0000 (  1514 PWs)   bands (ev):

   -16.9441  -9.9728  -7.9652  -4.5456   3.9936   6.5861   8.1362   9.0582

          k = 0.1667 0.4811 0.0000 (  1515 PWs)   bands (ev):

   -15.5661 -11.8860  -8.5409  -3.1151   2.0757   8.5886   9.6039   9.9233

          k = 0.1667 0.5774 0.0000 (  1500 PWs)   bands (ev):

   -14.3257 -13.3270  -8.7257  -2.2197   1.0041   9.5136  10.9244  11.1302

          k = 0.2500 0.4330 0.0000 (  1511 PWs)   bands (ev):

   -15.7143 -11.0056  -9.4520  -3.1995   2.3749   8.3683   9.6089  10.7865

          k = 0.2500 0.5292 0.0000 (  1497 PWs)   bands (ev):

   -14.2889 -12.4299 -10.1595  -1.8100   0.8505  10.4214  10.5371  11.7620

          k = 0.3333 0.5774 0.0000 (  1485 PWs)   bands (ev):

   -13.0688 -13.0688 -11.0620  -0.4505  -0.4505  10.1583  12.3429  12.3435

     the Fermi energy is    -0.4126 ev

!    total energy              =     -23.90913325 Ry
     estimated scf accuracy    <       0.00000073 Ry
     smearing contrib. (-TS)   =      -0.00018232 Ry
     internal energy E=F+TS    =     -23.90895092 Ry

     The total energy is F=E-TS. E is the sum of the following terms:
     one-electron contribution =     -90.80263548 Ry
     hartree contribution      =      47.23726319 Ry
     xc contribution           =      -8.30662788 Ry
     ewald contribution        =      27.96304925 Ry

     convergence has been achieved in   7 iterations

     Writing all to output data dir ../tmp/gr.save/

     init_run     :      0.34s CPU      0.36s WALL (       1 calls)
     electrons    :      2.62s CPU      3.18s WALL (       1 calls)

     Called by init_run:
     wfcinit      :      0.13s CPU      0.14s WALL (       1 calls)
     potinit      :      0.02s CPU      0.02s WALL (       1 calls)
     hinit0       :      0.19s CPU      0.19s WALL (       1 calls)

     Called by electrons:
     c_bands      :      2.28s CPU      2.77s WALL (       7 calls)
     sum_band     :      0.24s CPU      0.25s WALL (       7 calls)
     v_of_rho     :      0.06s CPU      0.06s WALL (       8 calls)
     newd         :      0.04s CPU      0.04s WALL (       8 calls)
     mix_rho      :      0.00s CPU      0.01s WALL (       7 calls)

     Called by c_bands:
     init_us_2    :      0.04s CPU      0.04s WALL (     285 calls)
     init_us_2:cp :      0.04s CPU      0.04s WALL (     285 calls)
     cegterg      :      2.16s CPU      2.22s WALL (     133 calls)

     Called by *egterg:
     cdiaghg      :      0.05s CPU      0.05s WALL (    1094 calls)
     h_psi        :      1.66s CPU      1.71s WALL (    1113 calls)
     s_psi        :      0.09s CPU      0.09s WALL (    1113 calls)
     g_psi        :      0.02s CPU      0.02s WALL (     961 calls)

     Called by h_psi:
     h_psi:calbec :      0.09s CPU      0.10s WALL (    1113 calls)
     vloc_psi     :      1.47s CPU      1.51s WALL (    1113 calls)
     add_vuspsi   :      0.09s CPU      0.09s WALL (    1113 calls)

     General routines
     calbec       :      0.12s CPU      0.12s WALL (    1246 calls)
     fft          :      0.13s CPU      0.13s WALL (      88 calls)
     ffts         :      0.00s CPU      0.00s WALL (       7 calls)
     fftw         :      1.45s CPU      1.49s WALL (   10164 calls)


     PWSCF        :      2.99s CPU      4.13s WALL


   This run was terminated on:   0:37:54  24Aug2023            

=------------------------------------------------------------------------------=
   JOB DONE.
=------------------------------------------------------------------------------=
