
     Program PWSCF v.7.0 starts on 24Aug2023 at  1:50:56 

     This program is part of the open-source Quantum ESPRESSO suite
     for quantum simulation of materials; please cite
         "P. Giannozzi et al., J. Phys.:Condens. Matter 21 395502 (2009);
         "P. Giannozzi et al., J. Phys.:Condens. Matter 29 465901 (2017);
         "P. Giannozzi et al., J. Chem. Phys. 152 154105 (2020);
          URL http://www.quantum-espresso.org", 
     in publications or presentations arising from this work. More details at
     http://www.quantum-espresso.org/quote

     Serial version
     5122 MiB available memory on the printing compute node when the environment starts

     Waiting for input...
     Reading input from standard input

     Current dimensions of program PWSCF are:
     Max number of different atomic species (ntypx) = 10
     Max number of k-points (npk) =  40000
     Max angular momentum in pseudopotentials (lmaxx) =  4

     G-vector sticks info
     --------------------
     sticks:   dense  smooth     PW     G-vecs:    dense   smooth      PW
     Sum         379     379    121                24967    24967    4325

     Using Slab Decomposition



     bravais-lattice index     =            4
     lattice parameter (alat)  =       4.6531  a.u.
     unit-cell volume          =     354.3310 (a.u.)^3
     number of atoms/cell      =            2
     number of atomic types    =            1
     number of electrons       =         8.00
     number of Kohn-Sham states=            8
     kinetic-energy cutoff     =      65.0000  Ry
     charge density cutoff     =     260.0000  Ry
     scf convergence threshold =      1.0E-06
     mixing beta               =       0.7000
     number of iterations used =            8  plain     mixing
     Exchange-correlation= PBE
                           (   1   4   3   4   0   0   0)

     celldm(1)=   4.653073  celldm(2)=   0.000000  celldm(3)=   4.061244
     celldm(4)=   0.000000  celldm(5)=   0.000000  celldm(6)=   0.000000

     crystal axes: (cart. coord. in units of alat)
               a(1) = (   1.000000   0.000000   0.000000 )  
               a(2) = (  -0.500000   0.866025   0.000000 )  
               a(3) = (   0.000000   0.000000   4.061244 )  

     reciprocal axes: (cart. coord. in units 2 pi/alat)
               b(1) = (  1.000000  0.577350 -0.000000 )  
               b(2) = (  0.000000  1.154701  0.000000 )  
               b(3) = (  0.000000 -0.000000  0.246230 )  


     PseudoPot. # 1 for C  read from file:
     ../pseudo/C.pbe-n-rrkjus_psl.0.1.UPF
     MD5 check sum: 96a6a315177d77e6c95bf6fd3870f9e3
     Pseudo is Ultrasoft + core correction, Zval =  4.0
     Generated using &quot;atomic&quot; code by A. Dal Corso  v.6.3MaX
     Using radial grid of 1073 points,  4 beta functions with: 
                l(1) =   0
                l(2) =   0
                l(3) =   1
                l(4) =   1
     Q(r) pseudized with 0 coefficients 


     atomic species   valence    mass     pseudopotential
        C              4.00    12.01070     C ( 1.00)

     24 Sym. Ops., with inversion, found



   Cartesian axes

     site n.     atom                  positions (alat units)
         1           C   tau(   1) = (   0.0000000   0.5773503   2.0306218  )
         2           C   tau(   2) = (   0.5000000   0.2886751   2.0306218  )

     number of k points=    19  Marzari-Vanderbilt smearing, width (Ry)=  0.0200
                       cart. coord. in units 2pi/alat
        k(    1) = (   0.0000000   0.0000000   0.0000000), wk =   0.0138889
        k(    2) = (   0.0000000   0.0962250   0.0000000), wk =   0.0833333
        k(    3) = (   0.0000000   0.1924501   0.0000000), wk =   0.0833333
        k(    4) = (   0.0000000   0.2886751   0.0000000), wk =   0.0833333
        k(    5) = (   0.0000000   0.3849002   0.0000000), wk =   0.0833333
        k(    6) = (   0.0000000   0.4811252   0.0000000), wk =   0.0833333
        k(    7) = (   0.0000000  -0.5773503   0.0000000), wk =   0.0416667
        k(    8) = (   0.0833333   0.1443376   0.0000000), wk =   0.0833333
        k(    9) = (   0.0833333   0.2405626   0.0000000), wk =   0.1666667
        k(   10) = (   0.0833333   0.3367877   0.0000000), wk =   0.1666667
        k(   11) = (   0.0833333   0.4330127   0.0000000), wk =   0.1666667
        k(   12) = (   0.0833333   0.5292377   0.0000000), wk =   0.1666667
        k(   13) = (   0.1666667   0.2886751   0.0000000), wk =   0.0833333
        k(   14) = (   0.1666667   0.3849002   0.0000000), wk =   0.1666667
        k(   15) = (   0.1666667   0.4811252   0.0000000), wk =   0.1666667
        k(   16) = (   0.1666667   0.5773503   0.0000000), wk =   0.0833333
        k(   17) = (   0.2500000   0.4330127   0.0000000), wk =   0.0833333
        k(   18) = (   0.2500000   0.5292377   0.0000000), wk =   0.1666667
        k(   19) = (   0.3333333   0.5773503   0.0000000), wk =   0.0277778

     Dense  grid:    24967 G-vectors     FFT dimensions: (  24,  24, 100)

     Estimated max dynamical RAM per process >      40.27 MB

     Check: negative core charge=   -0.000004

     Initial potential from superposition of free atoms

     starting charge       7.9999, renormalised to       8.0000

     negative rho (up, down):  1.171E-07 0.000E+00
     Starting wfcs are    8 randomized atomic wfcs

     total cpu time spent up to now is        0.7 secs

     Self-consistent Calculation

     iteration #  1     ecut=    65.00 Ry     beta= 0.70
     Davidson diagonalization with overlap
     ethr =  1.00E-02,  avg # of iterations =  7.1

     Threshold (ethr) on eigenvalues was too large:
     Diagonalizing with lowered threshold

     Davidson diagonalization with overlap
     ethr =  8.54E-04,  avg # of iterations =  7.2

     negative rho (up, down):  3.610E-06 0.000E+00

     total cpu time spent up to now is        2.5 secs

     total energy              =     -23.88106872 Ry
     estimated scf accuracy    <       0.19578019 Ry

     iteration #  2     ecut=    65.00 Ry     beta= 0.70
     Davidson diagonalization with overlap
     ethr =  2.45E-03,  avg # of iterations =  2.2

     negative rho (up, down):  8.857E-06 0.000E+00

     total cpu time spent up to now is        3.0 secs

     total energy              =     -23.89141747 Ry
     estimated scf accuracy    <       0.00607889 Ry

     iteration #  3     ecut=    65.00 Ry     beta= 0.70
     Davidson diagonalization with overlap
     c_bands:  1 eigenvalues not converged
     c_bands:  1 eigenvalues not converged
     c_bands:  3 eigenvalues not converged
     c_bands:  1 eigenvalues not converged
     c_bands:  1 eigenvalues not converged
     c_bands:  1 eigenvalues not converged
     c_bands:  1 eigenvalues not converged
     c_bands:  2 eigenvalues not converged
     c_bands:  1 eigenvalues not converged
     ethr =  7.60E-05,  avg # of iterations = 18.7

     negative rho (up, down):  8.473E-06 0.000E+00

     total cpu time spent up to now is        5.2 secs

     total energy              =     -23.91448096 Ry
     estimated scf accuracy    <       0.00866600 Ry

     iteration #  4     ecut=    65.00 Ry     beta= 0.70
     Davidson diagonalization with overlap
     ethr =  7.60E-05,  avg # of iterations =  3.7

     negative rho (up, down):  7.652E-06 0.000E+00

     total cpu time spent up to now is        5.8 secs

     total energy              =     -23.92061783 Ry
     estimated scf accuracy    <       0.01091913 Ry

     iteration #  5     ecut=    65.00 Ry     beta= 0.70
     Davidson diagonalization with overlap
     ethr =  7.60E-05,  avg # of iterations =  1.4

     negative rho (up, down):  4.057E-06 0.000E+00

     total cpu time spent up to now is        6.3 secs

     total energy              =     -23.91449578 Ry
     estimated scf accuracy    <       0.02136838 Ry

     iteration #  6     ecut=    65.00 Ry     beta= 0.70
     Davidson diagonalization with overlap
     ethr =  7.60E-05,  avg # of iterations =  1.7

     negative rho (up, down):  9.414E-06 0.000E+00

     total cpu time spent up to now is        6.9 secs

     total energy              =     -23.91202021 Ry
     estimated scf accuracy    <       0.01239628 Ry

     iteration #  7     ecut=    65.00 Ry     beta= 0.70
     Davidson diagonalization with overlap
     ethr =  7.60E-05,  avg # of iterations =  1.1

     negative rho (up, down):  8.131E-06 0.000E+00

     total cpu time spent up to now is        7.4 secs

     total energy              =     -23.91263008 Ry
     estimated scf accuracy    <       0.00668680 Ry

     iteration #  8     ecut=    65.00 Ry     beta= 0.70
     Davidson diagonalization with overlap
     ethr =  7.60E-05,  avg # of iterations =  1.2

     negative rho (up, down):  7.893E-06 0.000E+00

     total cpu time spent up to now is        7.9 secs

     total energy              =     -23.91275531 Ry
     estimated scf accuracy    <       0.00753614 Ry

     iteration #  9     ecut=    65.00 Ry     beta= 0.70
     Davidson diagonalization with overlap
     ethr =  7.60E-05,  avg # of iterations =  1.0

     negative rho (up, down):  6.450E-06 0.000E+00

     total cpu time spent up to now is        8.5 secs

     total energy              =     -23.91345230 Ry
     estimated scf accuracy    <       0.00750197 Ry

     iteration # 10     ecut=    65.00 Ry     beta= 0.70
     Davidson diagonalization with overlap
     ethr =  7.60E-05,  avg # of iterations =  1.0

     negative rho (up, down):  6.218E-05 0.000E+00

     total cpu time spent up to now is        9.0 secs

     total energy              =     -23.90845602 Ry
     estimated scf accuracy    <       0.00885550 Ry

     iteration # 11     ecut=    65.00 Ry     beta= 0.70
     Davidson diagonalization with overlap
     ethr =  7.60E-05,  avg # of iterations =  1.6

     negative rho (up, down):  6.351E-05 0.000E+00

     total cpu time spent up to now is        9.6 secs

     total energy              =     -23.90916578 Ry
     estimated scf accuracy    <       0.00006225 Ry

     iteration # 12     ecut=    65.00 Ry     beta= 0.70
     Davidson diagonalization with overlap
     c_bands:  1 eigenvalues not converged
     c_bands:  1 eigenvalues not converged
     c_bands:  1 eigenvalues not converged
     c_bands:  1 eigenvalues not converged
     c_bands:  1 eigenvalues not converged
     c_bands:  1 eigenvalues not converged
     ethr =  7.78E-07,  avg # of iterations = 15.6

     negative rho (up, down):  8.647E-05 0.000E+00

     total cpu time spent up to now is       11.9 secs

     total energy              =     -23.91043448 Ry
     estimated scf accuracy    <       0.00026737 Ry

     iteration # 13     ecut=    65.00 Ry     beta= 0.70
     Davidson diagonalization with overlap
     c_bands:  1 eigenvalues not converged
     ethr =  7.78E-07,  avg # of iterations =  7.3

     negative rho (up, down):  8.164E-05 0.000E+00

     total cpu time spent up to now is       12.7 secs

     total energy              =     -23.91049196 Ry
     estimated scf accuracy    <       0.00075030 Ry

     iteration # 14     ecut=    65.00 Ry     beta= 0.70
     Davidson diagonalization with overlap
     ethr =  7.78E-07,  avg # of iterations =  1.8

     negative rho (up, down):  7.725E-05 0.000E+00

     total cpu time spent up to now is       13.2 secs

     total energy              =     -23.91057460 Ry
     estimated scf accuracy    <       0.00084639 Ry

     iteration # 15     ecut=    65.00 Ry     beta= 0.70
     Davidson diagonalization with overlap
     ethr =  7.78E-07,  avg # of iterations =  2.2

     negative rho (up, down):  7.772E-05 0.000E+00

     total cpu time spent up to now is       13.8 secs

     total energy              =     -23.91055872 Ry
     estimated scf accuracy    <       0.00102441 Ry

     iteration # 16     ecut=    65.00 Ry     beta= 0.70
     Davidson diagonalization with overlap
     ethr =  7.78E-07,  avg # of iterations =  1.2

     negative rho (up, down):  7.865E-05 0.000E+00

     total cpu time spent up to now is       14.3 secs

     total energy              =     -23.91057534 Ry
     estimated scf accuracy    <       0.00100125 Ry

     iteration # 17     ecut=    65.00 Ry     beta= 0.70
     Davidson diagonalization with overlap
     ethr =  7.78E-07,  avg # of iterations =  1.0

     negative rho (up, down):  7.115E-05 0.000E+00

     total cpu time spent up to now is       14.9 secs

     total energy              =     -23.91055510 Ry
     estimated scf accuracy    <       0.00104079 Ry

     iteration # 18     ecut=    65.00 Ry     beta= 0.70
     Davidson diagonalization with overlap
     ethr =  7.78E-07,  avg # of iterations =  1.0

     negative rho (up, down):  7.285E-05 0.000E+00

     total cpu time spent up to now is       15.4 secs

     total energy              =     -23.91069344 Ry
     estimated scf accuracy    <       0.00101481 Ry

     iteration # 19     ecut=    65.00 Ry     beta= 0.70
     Davidson diagonalization with overlap
     ethr =  7.78E-07,  avg # of iterations =  1.3

     negative rho (up, down):  6.054E-05 0.000E+00

     total cpu time spent up to now is       15.9 secs

     total energy              =     -23.91054469 Ry
     estimated scf accuracy    <       0.00127407 Ry

     iteration # 20     ecut=    65.00 Ry     beta= 0.70
     Davidson diagonalization with overlap
     ethr =  7.78E-07,  avg # of iterations =  1.0

     negative rho (up, down):  7.469E-05 0.000E+00

     total cpu time spent up to now is       16.4 secs

     total energy              =     -23.91043055 Ry
     estimated scf accuracy    <       0.00101796 Ry

     iteration # 21     ecut=    65.00 Ry     beta= 0.70
     Davidson diagonalization with overlap
     ethr =  7.78E-07,  avg # of iterations =  1.0

     negative rho (up, down):  6.264E-05 0.000E+00

     total cpu time spent up to now is       17.0 secs

     total energy              =     -23.91029843 Ry
     estimated scf accuracy    <       0.00081876 Ry

     iteration # 22     ecut=    65.00 Ry     beta= 0.70
     Davidson diagonalization with overlap
     ethr =  7.78E-07,  avg # of iterations =  1.7

     negative rho (up, down):  5.426E-05 0.000E+00

     total cpu time spent up to now is       17.5 secs

     total energy              =     -23.91022018 Ry
     estimated scf accuracy    <       0.00055772 Ry

     iteration # 23     ecut=    65.00 Ry     beta= 0.70
     Davidson diagonalization with overlap
     ethr =  7.78E-07,  avg # of iterations =  1.5

     negative rho (up, down):  3.228E-05 0.000E+00

     total cpu time spent up to now is       18.0 secs

     total energy              =     -23.90997034 Ry
     estimated scf accuracy    <       0.00038352 Ry

     iteration # 24     ecut=    65.00 Ry     beta= 0.70
     Davidson diagonalization with overlap
     c_bands:  1 eigenvalues not converged
     ethr =  7.78E-07,  avg # of iterations =  9.8

     negative rho (up, down):  3.512E-05 0.000E+00

     total cpu time spent up to now is       19.3 secs

     total energy              =     -23.91009459 Ry
     estimated scf accuracy    <       0.00021093 Ry

     iteration # 25     ecut=    65.00 Ry     beta= 0.70
     Davidson diagonalization with overlap
     ethr =  7.78E-07,  avg # of iterations =  1.5

     negative rho (up, down):  4.046E-05 0.000E+00

     total cpu time spent up to now is       19.8 secs

     total energy              =     -23.91005777 Ry
     estimated scf accuracy    <       0.00005946 Ry

     iteration # 26     ecut=    65.00 Ry     beta= 0.70
     Davidson diagonalization with overlap
     ethr =  7.43E-07,  avg # of iterations =  4.1

     negative rho (up, down):  3.956E-05 0.000E+00

     total cpu time spent up to now is       20.5 secs

     total energy              =     -23.91008461 Ry
     estimated scf accuracy    <       0.00000995 Ry

     iteration # 27     ecut=    65.00 Ry     beta= 0.70
     Davidson diagonalization with overlap
     ethr =  1.24E-07,  avg # of iterations =  3.7

     negative rho (up, down):  3.757E-05 0.000E+00

     total cpu time spent up to now is       21.2 secs

     total energy              =     -23.91008592 Ry
     estimated scf accuracy    <       0.00000960 Ry

     iteration # 28     ecut=    65.00 Ry     beta= 0.70
     Davidson diagonalization with overlap
     ethr =  1.20E-07,  avg # of iterations =  1.8

     negative rho (up, down):  3.785E-05 0.000E+00

     total cpu time spent up to now is       21.7 secs

     End of self-consistent calculation

          k = 0.0000 0.0000 0.0000 (  3103 PWs)   bands (ev):

   -19.9951  -8.0943  -3.5210  -3.5210   2.5452   4.1924   5.1830   7.8764

          k = 0.0000 0.0962 0.0000 (  3087 PWs)   bands (ev):

   -19.8310  -7.8978  -4.1702  -3.8600   2.7700   4.4147   5.4034   7.9476

          k = 0.0000 0.1925 0.0000 (  3103 PWs)   bands (ev):

   -19.3404  -7.3134  -5.8058  -4.6540   3.4443   5.0789   6.0645   7.9120

          k = 0.0000 0.2887 0.0000 (  3134 PWs)   bands (ev):

   -18.5292  -7.9034  -6.3604  -5.5355   4.5664   6.1341   6.8840   7.1355

          k = 0.0000 0.3849 0.0000 (  3118 PWs)   bands (ev):

   -17.4093 -10.1074  -6.2703  -5.0891   4.4769   6.1288   7.2950   7.7551

          k = 0.0000 0.4811 0.0000 (  3128 PWs)   bands (ev):

   -16.0113 -12.2096  -6.7442  -3.6628   2.3349   7.0496   8.1532   9.6970

          k = 0.0000-0.5774 0.0000 (  3120 PWs)   bands (ev):

   -14.7408 -13.7228  -6.9068  -2.8157   1.2336   6.9726  10.4982  10.6273

          k = 0.0833 0.1443 0.0000 (  3114 PWs)   bands (ev):

   -19.5037  -7.5072  -5.2021  -4.5386   3.2197   4.8583   5.8453   8.2491

          k = 0.0833 0.2406 0.0000 (  3128 PWs)   bands (ev):

   -18.8528  -6.9105  -6.7373  -5.5381   4.1185   5.7379   6.7281   7.6754

          k = 0.0833 0.3368 0.0000 (  3128 PWs)   bands (ev):

   -17.8871  -8.9836  -6.4256  -5.6187   5.4633   5.4945   7.0833   7.9608

          k = 0.0833 0.4330 0.0000 (  3133 PWs)   bands (ev):

   -16.6252 -11.1078  -7.0613  -4.2357   3.2852   7.2383   7.8887   8.8044

          k = 0.0833 0.5292 0.0000 (  3146 PWs)   bands (ev):

   -15.1421 -13.0530  -7.3902  -2.9229   1.5111   7.7094   9.4681  10.8683

          k = 0.1667 0.2887 0.0000 (  3134 PWs)   bands (ev):

   -18.0474  -8.2389  -6.9023  -5.7979   5.2407   5.9509   6.8272   7.8354

          k = 0.1667 0.3849 0.0000 (  3139 PWs)   bands (ev):

   -16.9384  -9.9668  -7.9593  -4.5419   3.9972   6.8044   8.3113   9.3465

          k = 0.1667 0.4811 0.0000 (  3160 PWs)   bands (ev):

   -15.5604 -11.8802  -8.5350  -3.1115   2.0791   8.7902   9.6130  10.0662

          k = 0.1667 0.5774 0.0000 (  3164 PWs)   bands (ev):

   -14.3198 -13.3214  -8.7197  -2.2162   1.0077   9.5160  11.0844  11.2492

          k = 0.2500 0.4330 0.0000 (  3148 PWs)   bands (ev):

   -15.7086 -10.9996  -9.4463  -3.1958   2.3784   8.5740   9.7426  11.0846

          k = 0.2500 0.5292 0.0000 (  3172 PWs)   bands (ev):

   -14.2832 -12.4241 -10.1539  -1.8064   0.8540  10.4608  10.7123  11.7733

          k = 0.3333 0.5774 0.0000 (  3168 PWs)   bands (ev):

   -13.0629 -13.0629 -11.0566  -0.4470  -0.4470  10.1780  12.4066  12.4073

     the Fermi energy is    -0.4091 ev

!    total energy              =     -23.91008633 Ry
     estimated scf accuracy    <       0.00000064 Ry
     smearing contrib. (-TS)   =      -0.00018232 Ry
     internal energy E=F+TS    =     -23.90990401 Ry

     The total energy is F=E-TS. E is the sum of the following terms:
     one-electron contribution =     -90.80889831 Ry
     hartree contribution      =      47.24289032 Ry
     xc contribution           =      -8.30694529 Ry
     ewald contribution        =      27.96304927 Ry

     convergence has been achieved in  28 iterations

     Writing all to output data dir ../tmp/gr.save/

     init_run     :      0.50s CPU      0.53s WALL (       1 calls)
     electrons    :     18.74s CPU     21.10s WALL (       1 calls)

     Called by init_run:
     wfcinit      :      0.24s CPU      0.24s WALL (       1 calls)
     potinit      :      0.03s CPU      0.04s WALL (       1 calls)
     hinit0       :      0.22s CPU      0.22s WALL (       1 calls)

     Called by electrons:
     c_bands      :     15.59s CPU     17.77s WALL (      29 calls)
     sum_band     :      2.34s CPU      2.36s WALL (      29 calls)
     v_of_rho     :      0.44s CPU      0.44s WALL (      29 calls)
     newd         :      0.26s CPU      0.26s WALL (      29 calls)
     mix_rho      :      0.11s CPU      0.11s WALL (      29 calls)

     Called by c_bands:
     init_us_2    :      0.33s CPU      0.34s WALL (    1121 calls)
     init_us_2:cp :      0.33s CPU      0.34s WALL (    1121 calls)
     cegterg      :     14.86s CPU     15.13s WALL (     551 calls)

     Called by *egterg:
     cdiaghg      :      0.13s CPU      0.13s WALL (    2532 calls)
     h_psi        :     11.81s CPU     12.05s WALL (    2570 calls)
     s_psi        :      0.55s CPU      0.56s WALL (    2570 calls)
     g_psi        :      0.09s CPU      0.09s WALL (    2000 calls)

     Called by h_psi:
     h_psi:calbec :      0.58s CPU      0.59s WALL (    2570 calls)
     vloc_psi     :     10.62s CPU     10.83s WALL (    2570 calls)
     add_vuspsi   :      0.55s CPU      0.56s WALL (    2570 calls)

     General routines
     calbec       :      0.76s CPU      0.77s WALL (    3121 calls)
     fft          :      0.31s CPU      0.31s WALL (     320 calls)
     ffts         :      0.02s CPU      0.02s WALL (      29 calls)
     fftw         :     11.29s CPU     11.50s WALL (   31852 calls)


     PWSCF        :     19.30s CPU     22.24s WALL


   This run was terminated on:   1:51:18  24Aug2023            

=------------------------------------------------------------------------------=
   JOB DONE.
=------------------------------------------------------------------------------=
