
     Program PWSCF v.7.0 starts on 24Aug2023 at  1:49:49 

     This program is part of the open-source Quantum ESPRESSO suite
     for quantum simulation of materials; please cite
         "P. Giannozzi et al., J. Phys.:Condens. Matter 21 395502 (2009);
         "P. Giannozzi et al., J. Phys.:Condens. Matter 29 465901 (2017);
         "P. Giannozzi et al., J. Chem. Phys. 152 154105 (2020);
          URL http://www.quantum-espresso.org", 
     in publications or presentations arising from this work. More details at
     http://www.quantum-espresso.org/quote

     Serial version
     5120 MiB available memory on the printing compute node when the environment starts

     Waiting for input...
     Reading input from standard input

     Current dimensions of program PWSCF are:
     Max number of different atomic species (ntypx) = 10
     Max number of k-points (npk) =  40000
     Max angular momentum in pseudopotentials (lmaxx) =  4

     G-vector sticks info
     --------------------
     sticks:   dense  smooth     PW     G-vecs:    dense   smooth      PW
     Sum         151     151     55                 6379     6379    1339

     Using Slab Decomposition



     bravais-lattice index     =            4
     lattice parameter (alat)  =       4.6531  a.u.
     unit-cell volume          =     354.3310 (a.u.)^3
     number of atoms/cell      =            2
     number of atomic types    =            1
     number of electrons       =         8.00
     number of Kohn-Sham states=            8
     kinetic-energy cutoff     =      26.0000  Ry
     charge density cutoff     =     104.0000  Ry
     scf convergence threshold =      1.0E-06
     mixing beta               =       0.7000
     number of iterations used =            8  plain     mixing
     Exchange-correlation= PBE
                           (   1   4   3   4   0   0   0)

     celldm(1)=   4.653073  celldm(2)=   0.000000  celldm(3)=   4.061244
     celldm(4)=   0.000000  celldm(5)=   0.000000  celldm(6)=   0.000000

     crystal axes: (cart. coord. in units of alat)
               a(1) = (   1.000000   0.000000   0.000000 )  
               a(2) = (  -0.500000   0.866025   0.000000 )  
               a(3) = (   0.000000   0.000000   4.061244 )  

     reciprocal axes: (cart. coord. in units 2 pi/alat)
               b(1) = (  1.000000  0.577350 -0.000000 )  
               b(2) = (  0.000000  1.154701  0.000000 )  
               b(3) = (  0.000000 -0.000000  0.246230 )  


     PseudoPot. # 1 for C  read from file:
     ../pseudo/C.pbe-n-rrkjus_psl.0.1.UPF
     MD5 check sum: 96a6a315177d77e6c95bf6fd3870f9e3
     Pseudo is Ultrasoft + core correction, Zval =  4.0
     Generated using &quot;atomic&quot; code by A. Dal Corso  v.6.3MaX
     Using radial grid of 1073 points,  4 beta functions with: 
                l(1) =   0
                l(2) =   0
                l(3) =   1
                l(4) =   1
     Q(r) pseudized with 0 coefficients 


     atomic species   valence    mass     pseudopotential
        C              4.00    12.01070     C ( 1.00)

     24 Sym. Ops., with inversion, found



   Cartesian axes

     site n.     atom                  positions (alat units)
         1           C   tau(   1) = (   0.0000000   0.5773503   2.0306218  )
         2           C   tau(   2) = (   0.5000000   0.2886751   2.0306218  )

     number of k points=    19  Marzari-Vanderbilt smearing, width (Ry)=  0.0200
                       cart. coord. in units 2pi/alat
        k(    1) = (   0.0000000   0.0000000   0.0000000), wk =   0.0138889
        k(    2) = (   0.0000000   0.0962250   0.0000000), wk =   0.0833333
        k(    3) = (   0.0000000   0.1924501   0.0000000), wk =   0.0833333
        k(    4) = (   0.0000000   0.2886751   0.0000000), wk =   0.0833333
        k(    5) = (   0.0000000   0.3849002   0.0000000), wk =   0.0833333
        k(    6) = (   0.0000000   0.4811252   0.0000000), wk =   0.0833333
        k(    7) = (   0.0000000  -0.5773503   0.0000000), wk =   0.0416667
        k(    8) = (   0.0833333   0.1443376   0.0000000), wk =   0.0833333
        k(    9) = (   0.0833333   0.2405626   0.0000000), wk =   0.1666667
        k(   10) = (   0.0833333   0.3367877   0.0000000), wk =   0.1666667
        k(   11) = (   0.0833333   0.4330127   0.0000000), wk =   0.1666667
        k(   12) = (   0.0833333   0.5292377   0.0000000), wk =   0.1666667
        k(   13) = (   0.1666667   0.2886751   0.0000000), wk =   0.0833333
        k(   14) = (   0.1666667   0.3849002   0.0000000), wk =   0.1666667
        k(   15) = (   0.1666667   0.4811252   0.0000000), wk =   0.1666667
        k(   16) = (   0.1666667   0.5773503   0.0000000), wk =   0.0833333
        k(   17) = (   0.2500000   0.4330127   0.0000000), wk =   0.0833333
        k(   18) = (   0.2500000   0.5292377   0.0000000), wk =   0.1666667
        k(   19) = (   0.3333333   0.5773503   0.0000000), wk =   0.0277778

     Dense  grid:     6379 G-vectors     FFT dimensions: (  15,  15,  64)

     Estimated max dynamical RAM per process >      10.39 MB

     Check: negative core charge=   -0.000075

     Initial potential from superposition of free atoms

     starting charge       7.9999, renormalised to       8.0000

     negative rho (up, down):  2.867E-03 0.000E+00
     Starting wfcs are    8 randomized atomic wfcs

     total cpu time spent up to now is        0.3 secs

     Self-consistent Calculation

     iteration #  1     ecut=    26.00 Ry     beta= 0.70
     Davidson diagonalization with overlap
     ethr =  1.00E-02,  avg # of iterations =  8.6

     negative rho (up, down):  3.859E-04 0.000E+00

     total cpu time spent up to now is        0.6 secs

     total energy              =     -23.85433447 Ry
     estimated scf accuracy    <       0.14140917 Ry

     iteration #  2     ecut=    26.00 Ry     beta= 0.70
     Davidson diagonalization with overlap
     ethr =  1.77E-03,  avg # of iterations =  2.9

     negative rho (up, down):  2.187E-04 0.000E+00

     total cpu time spent up to now is        0.8 secs

     total energy              =     -23.86543896 Ry
     estimated scf accuracy    <       0.00583195 Ry

     iteration #  3     ecut=    26.00 Ry     beta= 0.70
     Davidson diagonalization with overlap
     c_bands:  3 eigenvalues not converged
     c_bands:  1 eigenvalues not converged
     ethr =  7.29E-05,  avg # of iterations = 13.4

     negative rho (up, down):  3.078E-04 0.000E+00

     total cpu time spent up to now is        1.1 secs

     total energy              =     -23.86909839 Ry
     estimated scf accuracy    <       0.00088708 Ry

     iteration #  4     ecut=    26.00 Ry     beta= 0.70
     Davidson diagonalization with overlap
     c_bands:  2 eigenvalues not converged
     ethr =  1.11E-05,  avg # of iterations =  5.4

     negative rho (up, down):  3.491E-04 0.000E+00

     total cpu time spent up to now is        1.4 secs

     total energy              =     -23.86913482 Ry
     estimated scf accuracy    <       0.00082880 Ry

     iteration #  5     ecut=    26.00 Ry     beta= 0.70
     Davidson diagonalization with overlap
     ethr =  1.04E-05,  avg # of iterations =  2.4

     negative rho (up, down):  3.448E-04 0.000E+00

     total cpu time spent up to now is        1.5 secs

     total energy              =     -23.86923786 Ry
     estimated scf accuracy    <       0.00000395 Ry

     iteration #  6     ecut=    26.00 Ry     beta= 0.70
     Davidson diagonalization with overlap
     ethr =  4.94E-08,  avg # of iterations =  6.5

     negative rho (up, down):  3.469E-04 0.000E+00

     total cpu time spent up to now is        1.8 secs

     total energy              =     -23.86925055 Ry
     estimated scf accuracy    <       0.00000396 Ry

     iteration #  7     ecut=    26.00 Ry     beta= 0.70
     Davidson diagonalization with overlap
     ethr =  4.94E-08,  avg # of iterations =  1.4

     negative rho (up, down):  3.506E-04 0.000E+00

     total cpu time spent up to now is        2.0 secs

     total energy              =     -23.86924996 Ry
     estimated scf accuracy    <       0.00000137 Ry

     iteration #  8     ecut=    26.00 Ry     beta= 0.70
     Davidson diagonalization with overlap
     ethr =  1.71E-08,  avg # of iterations =  2.0

     negative rho (up, down):  3.519E-04 0.000E+00

     total cpu time spent up to now is        2.1 secs

     End of self-consistent calculation

          k = 0.0000 0.0000 0.0000 (   823 PWs)   bands (ev):

   -20.0995  -8.1139  -3.5296  -3.5296   1.9565   3.6775   4.5730   7.9229

          k = 0.0000 0.0962 0.0000 (   795 PWs)   bands (ev):

   -19.9345  -7.8995  -4.1578  -3.8442   2.1832   3.9036   4.7942   8.0142

          k = 0.0000 0.1925 0.0000 (   785 PWs)   bands (ev):

   -19.4410  -7.3014  -5.8000  -4.6371   2.8634   4.5736   5.4571   7.9537

          k = 0.0000 0.2887 0.0000 (   793 PWs)   bands (ev):

   -18.6249  -7.9245  -6.3490  -5.5289   3.9956   5.6608   6.5526   6.9535

          k = 0.0000 0.3849 0.0000 (   792 PWs)   bands (ev):

   -17.4982 -10.1419  -6.2650  -5.0721   4.5345   5.5769   7.2327   7.2724

          k = 0.0000 0.4811 0.0000 (   798 PWs)   bands (ev):

   -16.0962 -12.2646  -6.7404  -3.6274   2.3779   6.9846   7.6146   9.2362

          k = 0.0000-0.5774 0.0000 (   790 PWs)   bands (ev):

   -14.8310 -13.7649  -6.8937  -2.7917   1.2841   6.9030  10.0262  10.1047

          k = 0.0833 0.1443 0.0000 (   797 PWs)   bands (ev):

   -19.6055  -7.5060  -5.2012  -4.5256   2.6367   4.3499   5.2365   8.3006

          k = 0.0833 0.2406 0.0000 (   790 PWs)   bands (ev):

   -18.9502  -6.9251  -6.7305  -5.5272   3.5432   5.2370   6.1210   7.7849

          k = 0.0833 0.3368 0.0000 (   784 PWs)   bands (ev):

   -17.9774  -9.0042  -6.4130  -5.6060   4.9007   5.5734   6.6052   7.4289

          k = 0.0833 0.4330 0.0000 (   796 PWs)   bands (ev):

   -16.7109 -11.1553  -7.0545  -4.2166   3.3476   6.7034   7.8255   8.3365

          k = 0.0833 0.5292 0.0000 (   798 PWs)   bands (ev):

   -15.2251 -13.1097  -7.3853  -2.8942   1.5606   7.6514   8.9515  10.4518

          k = 0.1667 0.2887 0.0000 (   788 PWs)   bands (ev):

   -18.1397  -8.2573  -6.9097  -5.7897   4.6750   6.0424   6.3357   7.2264

          k = 0.1667 0.3849 0.0000 (   782 PWs)   bands (ev):

   -17.0207  -9.9996  -7.9618  -4.5186   4.0841   6.2556   7.8471   8.7586

          k = 0.1667 0.4811 0.0000 (   802 PWs)   bands (ev):

   -15.6405 -11.9361  -8.5519  -3.0862   2.1308   8.2739   9.5711   9.6721

          k = 0.1667 0.5774 0.0000 (   800 PWs)   bands (ev):

   -14.4048 -13.3733  -8.7349  -2.1837   1.0530   9.4834  10.6526  10.7532

          k = 0.2500 0.4330 0.0000 (   794 PWs)   bands (ev):

   -15.7879 -11.0513  -9.4543  -3.1777   2.4403   8.0503   9.3649  10.4885

          k = 0.2500 0.5292 0.0000 (   806 PWs)   bands (ev):

   -14.3596 -12.4878 -10.1732  -1.7788   0.9029  10.2513  10.3120  11.7584

          k = 0.3333 0.5774 0.0000 (   798 PWs)   bands (ev):

   -13.1320 -13.1320 -11.0732  -0.3916  -0.3916  10.0759  12.2305  12.2317

     the Fermi energy is    -0.3537 ev

!    total energy              =     -23.86925013 Ry
     estimated scf accuracy    <       0.00000005 Ry
     smearing contrib. (-TS)   =      -0.00018232 Ry
     internal energy E=F+TS    =     -23.86906781 Ry

     The total energy is F=E-TS. E is the sum of the following terms:
     one-electron contribution =     -90.71757996 Ry
     hartree contribution      =      47.18028306 Ry
     xc contribution           =      -8.29482014 Ry
     ewald contribution        =      27.96304924 Ry

     convergence has been achieved in   8 iterations

     Writing all to output data dir ../tmp/gr.save/

     init_run     :      0.17s CPU      0.19s WALL (       1 calls)
     electrons    :      1.18s CPU      1.85s WALL (       1 calls)

     Called by init_run:
     wfcinit      :      0.06s CPU      0.06s WALL (       1 calls)
     potinit      :      0.00s CPU      0.01s WALL (       1 calls)
     hinit0       :      0.11s CPU      0.11s WALL (       1 calls)

     Called by electrons:
     c_bands      :      1.00s CPU      1.59s WALL (       8 calls)
     sum_band     :      0.13s CPU      0.13s WALL (       8 calls)
     v_of_rho     :      0.03s CPU      0.03s WALL (       9 calls)
     newd         :      0.02s CPU      0.02s WALL (       9 calls)
     mix_rho      :      0.00s CPU      0.00s WALL (       8 calls)

     Called by c_bands:
     init_us_2    :      0.02s CPU      0.03s WALL (     323 calls)
     init_us_2:cp :      0.02s CPU      0.03s WALL (     323 calls)
     cegterg      :      0.91s CPU      1.02s WALL (     152 calls)

     Called by *egterg:
     cdiaghg      :      0.04s CPU      0.04s WALL (     962 calls)
     h_psi        :      0.67s CPU      0.76s WALL (     981 calls)
     s_psi        :      0.04s CPU      0.05s WALL (     981 calls)
     g_psi        :      0.01s CPU      0.01s WALL (     810 calls)

     Called by h_psi:
     h_psi:calbec :      0.04s CPU      0.05s WALL (     981 calls)
     vloc_psi     :      0.58s CPU      0.66s WALL (     981 calls)
     add_vuspsi   :      0.04s CPU      0.05s WALL (     981 calls)

     General routines
     calbec       :      0.05s CPU      0.06s WALL (    1133 calls)
     fft          :      0.06s CPU      0.06s WALL (      99 calls)
     ffts         :      0.00s CPU      0.00s WALL (       8 calls)
     fftw         :      0.59s CPU      0.65s WALL (   10142 calls)


     PWSCF        :      1.40s CPU      2.55s WALL


   This run was terminated on:   1:49:51  24Aug2023            

=------------------------------------------------------------------------------=
   JOB DONE.
=------------------------------------------------------------------------------=
