
     Program PWSCF v.6.4.1 starts on 19Aug2023 at  0:27:49 

     This program is part of the open-source Quantum ESPRESSO suite
     for quantum simulation of materials; please cite
         "P. Giannozzi et al., J. Phys.:Condens. Matter 21 395502 (2009);
         "P. Giannozzi et al., J. Phys.:Condens. Matter 29 465901 (2017);
          URL http://www.quantum-espresso.org", 
     in publications or presentations arising from this work. More details at
     http://www.quantum-espresso.org/quote

     Parallel version (MPI & OpenMP), running on      16 processor cores
     Number of MPI processes:                 1
     Threads/MPI process:                    16

     MPI processes distributed on     1 nodes
     Waiting for input...
     Reading input from standard input

     Current dimensions of program PWSCF are:
     Max number of different atomic species (ntypx) = 10
     Max number of k-points (npk) =  40000
     Max angular momentum in pseudopotentials (lmaxx) =  3
               file C.pbe-n-kjpaw_psl.1.0.0.UPF: wavefunction(s)  2S 2P renormalized

     Subspace diagonalization in iterative solution of the eigenvalue problem:
     a serial algorithm will be used

     Message from routine setup:
     DEPRECATED: symmetry with ibrav=0, use correct ibrav instead

     G-vector sticks info
     --------------------
     sticks:   dense  smooth     PW     G-vecs:    dense   smooth      PW
     Sum         547     265     85                35565    12527    2271



     bravais-lattice index     =            0
     lattice parameter (alat)  =       4.6633  a.u.
     unit-cell volume          =     309.0951 (a.u.)^3
     number of atoms/cell      =            4
     number of atomic types    =            1
     number of electrons       =        16.00
     number of Kohn-Sham states=           12
     kinetic-energy cutoff     =      45.0000  Ry
     charge density cutoff     =     360.0000  Ry
     convergence threshold     =      8.0E-10
     mixing beta               =       0.4000
     number of iterations used =            8  plain     mixing
     Exchange-correlation      = SLA PW PBX PBC ( 1  4  3  4 0 0)

     celldm(1)=   4.663323  celldm(2)=   0.000000  celldm(3)=   0.000000
     celldm(4)=   0.000000  celldm(5)=   0.000000  celldm(6)=   0.000000

     crystal axes: (cart. coord. in units of alat)
               a(1) = (  -0.500000  -0.866025  -0.000000 )  
               a(2) = (  -0.500000   0.866025   0.000000 )  
               a(3) = (   0.000000   0.000000  -3.519453 )  

     reciprocal axes: (cart. coord. in units 2 pi/alat)
               b(1) = ( -1.000000 -0.577350 -0.000000 )  
               b(2) = ( -1.000000  0.577350  0.000000 )  
               b(3) = (  0.000000  0.000000 -0.284135 )  


     PseudoPot. # 1 for C  read from file:
     ./pseudo/\C.pbe-n-kjpaw_psl.1.0.0.UPF
     MD5 check sum: 5d2aebdfa2cae82b50a7e79e9516da0f
     Pseudo is Projector augmented-wave + core cor, Zval =  4.0
     Generated using "atomic" code by A. Dal Corso v.5.1
     Shape of augmentation charge: PSQ
     Using radial grid of 1073 points,  4 beta functions with: 
                l(1) =   0
                l(2) =   0
                l(3) =   1
                l(4) =   1
     Q(r) pseudized with 0 coefficients 


     atomic species   valence    mass     pseudopotential
        C              4.00    12.01070     C ( 1.00)

     24 Sym. Ops., with inversion, found (12 have fractional translation)


                                    s                        frac. trans.

      isym =  1     identity                                     

 cryst.   s( 1) = (     1          0          0      )
                  (     0          1          0      )
                  (     0          0          1      )

 cart.    s( 1) = (  1.0000000  0.0000000  0.0000000 )
                  (  0.0000000  1.0000000  0.0000000 )
                  (  0.0000000  0.0000000  1.0000000 )


      isym =  2     180 deg rotation - cart. axis [0,0,1]        

 cryst.   s( 2) = (    -1          0          0      )    f =(  0.0000000 )
                  (     0         -1          0      )       (  0.0000000 )
                  (     0          0          1      )       (  0.5000000 )

 cart.    s( 2) = ( -1.0000000  0.0000000  0.0000000 )    f =(  0.0000000 )
                  (  0.0000000 -1.0000000  0.0000000 )       (  0.0000000 )
                  (  0.0000000  0.0000000  1.0000000 )       ( -1.7597263 )


      isym =  3     180 deg rotation - cart. axis [0,1,0]        

 cryst.   s( 3) = (     0         -1          0      )    f =(  0.0000000 )
                  (    -1          0          0      )       (  0.0000000 )
                  (     0          0         -1      )       (  0.5000000 )

 cart.    s( 3) = ( -1.0000000  0.0000000  0.0000000 )    f =(  0.0000000 )
                  (  0.0000000  1.0000000  0.0000000 )       (  0.0000000 )
                  (  0.0000000  0.0000000 -1.0000000 )       ( -1.7597263 )


      isym =  4     180 deg rotation - cart. axis [1,0,0]        

 cryst.   s( 4) = (     0          1          0      )
                  (     1          0          0      )
                  (     0          0         -1      )

 cart.    s( 4) = (  1.0000000  0.0000000  0.0000000 )
                  (  0.0000000 -1.0000000  0.0000000 )
                  (  0.0000000  0.0000000 -1.0000000 )


      isym =  5      60 deg rotation - cryst. axis [0,0,1]       

 cryst.   s( 5) = (     0         -1          0      )    f =(  0.0000000 )
                  (     1          1          0      )       (  0.0000000 )
                  (     0          0          1      )       (  0.5000000 )

 cart.    s( 5) = (  0.5000000 -0.8660254  0.0000000 )    f =(  0.0000000 )
                  (  0.8660254  0.5000000  0.0000000 )       (  0.0000000 )
                  (  0.0000000  0.0000000  1.0000000 )       ( -1.7597263 )


      isym =  6      60 deg rotation - cryst. axis [0,0,-1]      

 cryst.   s( 6) = (     1          1          0      )    f =(  0.0000000 )
                  (    -1          0          0      )       (  0.0000000 )
                  (     0          0          1      )       (  0.5000000 )

 cart.    s( 6) = (  0.5000000  0.8660254  0.0000000 )    f =(  0.0000000 )
                  ( -0.8660254  0.5000000  0.0000000 )       (  0.0000000 )
                  (  0.0000000  0.0000000  1.0000000 )       ( -1.7597263 )


      isym =  7     120 deg rotation - cryst. axis [0,0,1]       

 cryst.   s( 7) = (    -1         -1          0      )
                  (     1          0          0      )
                  (     0          0          1      )

 cart.    s( 7) = ( -0.5000000 -0.8660254  0.0000000 )
                  (  0.8660254 -0.5000000  0.0000000 )
                  (  0.0000000  0.0000000  1.0000000 )


      isym =  8     120 deg rotation - cryst. axis [0,0,-1]      

 cryst.   s( 8) = (     0          1          0      )
                  (    -1         -1          0      )
                  (     0          0          1      )

 cart.    s( 8) = ( -0.5000000  0.8660254  0.0000000 )
                  ( -0.8660254 -0.5000000  0.0000000 )
                  (  0.0000000  0.0000000  1.0000000 )


      isym =  9     180 deg rotation - cryst. axis [1,-1,0]      

 cryst.   s( 9) = (    -1          0          0      )    f =(  0.0000000 )
                  (     1          1          0      )       (  0.0000000 )
                  (     0          0         -1      )       (  0.5000000 )

 cart.    s( 9) = (  0.5000000 -0.8660254  0.0000000 )    f =(  0.0000000 )
                  ( -0.8660254 -0.5000000  0.0000000 )       (  0.0000000 )
                  (  0.0000000  0.0000000 -1.0000000 )       ( -1.7597263 )


      isym = 10     180 deg rotation - cryst. axis [2,1,0]       

 cryst.   s(10) = (     1          1          0      )    f =(  0.0000000 )
                  (     0         -1          0      )       (  0.0000000 )
                  (     0          0         -1      )       (  0.5000000 )

 cart.    s(10) = (  0.5000000  0.8660254  0.0000000 )    f =(  0.0000000 )
                  (  0.8660254 -0.5000000  0.0000000 )       (  0.0000000 )
                  (  0.0000000  0.0000000 -1.0000000 )       ( -1.7597263 )


      isym = 11     180 deg rotation - cryst. axis [0,1,0]       

 cryst.   s(11) = (    -1         -1          0      )
                  (     0          1          0      )
                  (     0          0         -1      )

 cart.    s(11) = ( -0.5000000 -0.8660254  0.0000000 )
                  ( -0.8660254  0.5000000  0.0000000 )
                  (  0.0000000  0.0000000 -1.0000000 )


      isym = 12     180 deg rotation - cryst. axis [1,1,0]       

 cryst.   s(12) = (     1          0          0      )
                  (    -1         -1          0      )
                  (     0          0         -1      )

 cart.    s(12) = ( -0.5000000  0.8660254  0.0000000 )
                  (  0.8660254  0.5000000  0.0000000 )
                  (  0.0000000  0.0000000 -1.0000000 )


      isym = 13     inversion                                    

 cryst.   s(13) = (    -1          0          0      )
                  (     0         -1          0      )
                  (     0          0         -1      )

 cart.    s(13) = ( -1.0000000  0.0000000  0.0000000 )
                  (  0.0000000 -1.0000000  0.0000000 )
                  (  0.0000000  0.0000000 -1.0000000 )


      isym = 14     inv. 180 deg rotation - cart. axis [0,0,1]   

 cryst.   s(14) = (     1          0          0      )    f =(  0.0000000 )
                  (     0          1          0      )       (  0.0000000 )
                  (     0          0         -1      )       (  0.5000000 )

 cart.    s(14) = (  1.0000000  0.0000000  0.0000000 )    f =(  0.0000000 )
                  (  0.0000000  1.0000000  0.0000000 )       (  0.0000000 )
                  (  0.0000000  0.0000000 -1.0000000 )       ( -1.7597263 )


      isym = 15     inv. 180 deg rotation - cart. axis [0,1,0]   

 cryst.   s(15) = (     0          1          0      )    f =(  0.0000000 )
                  (     1          0          0      )       (  0.0000000 )
                  (     0          0          1      )       (  0.5000000 )

 cart.    s(15) = (  1.0000000  0.0000000  0.0000000 )    f =(  0.0000000 )
                  (  0.0000000 -1.0000000  0.0000000 )       (  0.0000000 )
                  (  0.0000000  0.0000000  1.0000000 )       ( -1.7597263 )


      isym = 16     inv. 180 deg rotation - cart. axis [1,0,0]   

 cryst.   s(16) = (     0         -1          0      )
                  (    -1          0          0      )
                  (     0          0          1      )

 cart.    s(16) = ( -1.0000000  0.0000000  0.0000000 )
                  (  0.0000000  1.0000000  0.0000000 )
                  (  0.0000000  0.0000000  1.0000000 )


      isym = 17     inv.  60 deg rotation - cryst. axis [0,0,1]  

 cryst.   s(17) = (     0          1          0      )    f =(  0.0000000 )
                  (    -1         -1          0      )       (  0.0000000 )
                  (     0          0         -1      )       (  0.5000000 )

 cart.    s(17) = ( -0.5000000  0.8660254  0.0000000 )    f =(  0.0000000 )
                  ( -0.8660254 -0.5000000  0.0000000 )       (  0.0000000 )
                  (  0.0000000  0.0000000 -1.0000000 )       ( -1.7597263 )


      isym = 18     inv.  60 deg rotation - cryst. axis [0,0,-1] 

 cryst.   s(18) = (    -1         -1          0      )    f =(  0.0000000 )
                  (     1          0          0      )       (  0.0000000 )
                  (     0          0         -1      )       (  0.5000000 )

 cart.    s(18) = ( -0.5000000 -0.8660254  0.0000000 )    f =(  0.0000000 )
                  (  0.8660254 -0.5000000  0.0000000 )       (  0.0000000 )
                  (  0.0000000  0.0000000 -1.0000000 )       ( -1.7597263 )


      isym = 19     inv. 120 deg rotation - cryst. axis [0,0,1]  

 cryst.   s(19) = (     1          1          0      )
                  (    -1          0          0      )
                  (     0          0         -1      )

 cart.    s(19) = (  0.5000000  0.8660254  0.0000000 )
                  ( -0.8660254  0.5000000  0.0000000 )
                  (  0.0000000  0.0000000 -1.0000000 )


      isym = 20     inv. 120 deg rotation - cryst. axis [0,0,-1] 

 cryst.   s(20) = (     0         -1          0      )
                  (     1          1          0      )
                  (     0          0         -1      )

 cart.    s(20) = (  0.5000000 -0.8660254  0.0000000 )
                  (  0.8660254  0.5000000  0.0000000 )
                  (  0.0000000  0.0000000 -1.0000000 )


      isym = 21     inv. 180 deg rotation - cryst. axis [1,-1,0] 

 cryst.   s(21) = (     1          0          0      )    f =(  0.0000000 )
                  (    -1         -1          0      )       (  0.0000000 )
                  (     0          0          1      )       (  0.5000000 )

 cart.    s(21) = ( -0.5000000  0.8660254  0.0000000 )    f =(  0.0000000 )
                  (  0.8660254  0.5000000  0.0000000 )       (  0.0000000 )
                  (  0.0000000  0.0000000  1.0000000 )       ( -1.7597263 )


      isym = 22     inv. 180 deg rotation - cryst. axis [2,1,0]  

 cryst.   s(22) = (    -1         -1          0      )    f =(  0.0000000 )
                  (     0          1          0      )       (  0.0000000 )
                  (     0          0          1      )       (  0.5000000 )

 cart.    s(22) = ( -0.5000000 -0.8660254  0.0000000 )    f =(  0.0000000 )
                  ( -0.8660254  0.5000000  0.0000000 )       (  0.0000000 )
                  (  0.0000000  0.0000000  1.0000000 )       ( -1.7597263 )


      isym = 23     inv. 180 deg rotation - cryst. axis [0,1,0]  

 cryst.   s(23) = (     1          1          0      )
                  (     0         -1          0      )
                  (     0          0          1      )

 cart.    s(23) = (  0.5000000  0.8660254  0.0000000 )
                  (  0.8660254 -0.5000000  0.0000000 )
                  (  0.0000000  0.0000000  1.0000000 )


      isym = 24     inv. 180 deg rotation - cryst. axis [1,1,0]  

 cryst.   s(24) = (    -1          0          0      )
                  (     1          1          0      )
                  (     0          0          1      )

 cart.    s(24) = (  0.5000000 -0.8660254  0.0000000 )
                  ( -0.8660254 -0.5000000  0.0000000 )
                  (  0.0000000  0.0000000  1.0000000 )


   Cartesian axes

     site n.     atom                  positions (alat units)
         1           C   tau(   1) = (   0.0000000   0.0000000  -2.6395894  )
         2           C   tau(   2) = (   0.0000000   0.0000000  -0.8798631  )
         3           C   tau(   3) = (  -0.5000000   0.2886751  -2.6395894  )
         4           C   tau(   4) = (  -0.5000000  -0.2886751  -0.8798631  )

   Crystallographic axes

     site n.     atom                  positions (cryst. coord.)
         1           C   tau(   1) = (  0.0000000  0.0000000  0.7500000  )
         2           C   tau(   2) = (  0.0000000  0.0000000  0.2500000  )
         3           C   tau(   3) = (  0.3333333  0.6666667  0.7500000  )
         4           C   tau(   4) = (  0.6666667  0.3333333  0.2500000  )

     number of k points=    28  Marzari-Vanderbilt smearing, width (Ry)=  0.0220
                       cart. coord. in units 2pi/alat
        k(    1) = (   0.0000000   0.0000000   0.0000000), wk =   0.0066667
        k(    2) = (   0.0000000   0.0000000  -0.0947117), wk =   0.0133333
        k(    3) = (  -0.1000000   0.0577350   0.0000000), wk =   0.0400000
        k(    4) = (  -0.1000000   0.0577350  -0.0947117), wk =   0.0800000
        k(    5) = (  -0.2000000   0.1154701   0.0000000), wk =   0.0400000
        k(    6) = (  -0.2000000   0.1154701  -0.0947117), wk =   0.0800000
        k(    7) = (  -0.3000000   0.1732051   0.0000000), wk =   0.0400000
        k(    8) = (  -0.3000000   0.1732051  -0.0947117), wk =   0.0800000
        k(    9) = (  -0.4000000   0.2309401   0.0000000), wk =   0.0400000
        k(   10) = (  -0.4000000   0.2309401  -0.0947117), wk =   0.0800000
        k(   11) = (   0.5000000  -0.2886751  -0.0000000), wk =   0.0200000
        k(   12) = (   0.5000000  -0.2886751  -0.0947117), wk =   0.0400000
        k(   13) = (  -0.2000000   0.0000000   0.0000000), wk =   0.0400000
        k(   14) = (  -0.2000000   0.0000000  -0.0947117), wk =   0.0800000
        k(   15) = (  -0.3000000   0.0577350   0.0000000), wk =   0.0800000
        k(   16) = (  -0.3000000   0.0577350  -0.0947117), wk =   0.1600000
        k(   17) = (  -0.4000000   0.1154701   0.0000000), wk =   0.0800000
        k(   18) = (  -0.4000000   0.1154701  -0.0947117), wk =   0.1600000
        k(   19) = (  -0.5000000   0.1732051   0.0000000), wk =   0.0800000
        k(   20) = (  -0.5000000   0.1732051  -0.0947117), wk =   0.1600000
        k(   21) = (  -0.4000000   0.0000000   0.0000000), wk =   0.0400000
        k(   22) = (  -0.4000000   0.0000000  -0.0947117), wk =   0.0800000
        k(   23) = (  -0.5000000   0.0577350   0.0000000), wk =   0.0800000
        k(   24) = (  -0.5000000   0.0577350  -0.0947117), wk =   0.1600000
        k(   25) = (  -0.6000000   0.1154701   0.0000000), wk =   0.0400000
        k(   26) = (  -0.6000000   0.1154701  -0.0947117), wk =   0.0800000
        k(   27) = (  -0.6000000   0.0000000   0.0000000), wk =   0.0400000
        k(   28) = (  -0.6000000   0.0000000  -0.0947117), wk =   0.0800000

                       cryst. coord.
        k(    1) = (  -0.0000000   0.0000000   0.0000000), wk =   0.0066667
        k(    2) = (   0.0000000   0.0000000   0.3333333), wk =   0.0133333
        k(    3) = (  -0.0000000   0.1000000   0.0000000), wk =   0.0400000
        k(    4) = (  -0.0000000   0.1000000   0.3333333), wk =   0.0800000
        k(    5) = (  -0.0000000   0.2000000   0.0000000), wk =   0.0400000
        k(    6) = (  -0.0000000   0.2000000   0.3333333), wk =   0.0800000
        k(    7) = (  -0.0000000   0.3000000   0.0000000), wk =   0.0400000
        k(    8) = (  -0.0000000   0.3000000   0.3333333), wk =   0.0800000
        k(    9) = (  -0.0000000   0.4000000   0.0000000), wk =   0.0400000
        k(   10) = (  -0.0000000   0.4000000   0.3333333), wk =   0.0800000
        k(   11) = (   0.0000000  -0.5000000   0.0000000), wk =   0.0200000
        k(   12) = (   0.0000000  -0.5000000   0.3333333), wk =   0.0400000
        k(   13) = (   0.1000000   0.1000000   0.0000000), wk =   0.0400000
        k(   14) = (   0.1000000   0.1000000   0.3333333), wk =   0.0800000
        k(   15) = (   0.1000000   0.2000000   0.0000000), wk =   0.0800000
        k(   16) = (   0.1000000   0.2000000   0.3333333), wk =   0.1600000
        k(   17) = (   0.1000000   0.3000000   0.0000000), wk =   0.0800000
        k(   18) = (   0.1000000   0.3000000   0.3333333), wk =   0.1600000
        k(   19) = (   0.1000000   0.4000000   0.0000000), wk =   0.0800000
        k(   20) = (   0.1000000   0.4000000   0.3333333), wk =   0.1600000
        k(   21) = (   0.2000000   0.2000000   0.0000000), wk =   0.0400000
        k(   22) = (   0.2000000   0.2000000   0.3333333), wk =   0.0800000
        k(   23) = (   0.2000000   0.3000000   0.0000000), wk =   0.0800000
        k(   24) = (   0.2000000   0.3000000   0.3333333), wk =   0.1600000
        k(   25) = (   0.2000000   0.4000000   0.0000000), wk =   0.0400000
        k(   26) = (   0.2000000   0.4000000   0.3333333), wk =   0.0800000
        k(   27) = (   0.3000000   0.3000000   0.0000000), wk =   0.0400000
        k(   28) = (   0.3000000   0.3000000   0.3333333), wk =   0.0800000

     Dense  grid:    35565 G-vectors     FFT dimensions: (  30,  30, 100)

     Smooth grid:    12527 G-vectors     FFT dimensions: (  20,  20,  72)

     Dynamical RAM for                 wfc:       0.29 MB

     Dynamical RAM for     wfc (w. buffer):       8.37 MB

     Dynamical RAM for           str. fact:       0.54 MB

     Dynamical RAM for           local pot:       0.00 MB

     Dynamical RAM for          nlocal pot:       0.77 MB

     Dynamical RAM for                qrad:       0.32 MB

     Dynamical RAM for          rho,v,vnew:       3.69 MB

     Dynamical RAM for               rhoin:       1.23 MB

     Dynamical RAM for            rho*nmix:       8.68 MB

     Dynamical RAM for           G-vectors:       2.13 MB

     Dynamical RAM for          h,s,v(r/c):       0.11 MB

     Dynamical RAM for          <psi|beta>:       0.01 MB

     Dynamical RAM for                 psi:       1.15 MB

     Dynamical RAM for                hpsi:       1.15 MB

     Dynamical RAM for                spsi:       1.15 MB

     Dynamical RAM for      wfcinit/wfcrot:       0.78 MB

     Dynamical RAM for           addusdens:      25.51 MB

     Dynamical RAM for          addusforce:      29.04 MB

     Dynamical RAM for         addusstress:      27.13 MB

     Estimated static dynamical RAM per process >      30.25 MB

     Estimated max dynamical RAM per process >      59.29 MB

     Check: negative core charge=   -0.000010

     Initial potential from superposition of free atoms

     starting charge   15.99983, renormalised to   16.00000
     Starting wfcs are   16 randomized atomic wfcs
     Checking if some PAW data can be deallocated... 

     total cpu time spent up to now is        2.4 secs

     Self-consistent Calculation

     iteration #  1     ecut=    45.00 Ry     beta= 0.40
     Davidson diagonalization with overlap
     ethr =  1.00E-02,  avg # of iterations =  3.1

     total cpu time spent up to now is        4.8 secs

     total energy              =     -73.78178658 Ry
     Harris-Foulkes estimate   =     -73.95257695 Ry
     estimated scf accuracy    <       0.39870753 Ry

     iteration #  2     ecut=    45.00 Ry     beta= 0.40
     Davidson diagonalization with overlap
     ethr =  2.49E-03,  avg # of iterations =  1.5

     total cpu time spent up to now is        6.6 secs

     total energy              =     -73.76232542 Ry
     Harris-Foulkes estimate   =     -73.80276280 Ry
     estimated scf accuracy    <       0.07506349 Ry

     iteration #  3     ecut=    45.00 Ry     beta= 0.40
     Davidson diagonalization with overlap
     ethr =  4.69E-04,  avg # of iterations =  3.4

     total cpu time spent up to now is        9.0 secs

     total energy              =     -73.77465671 Ry
     Harris-Foulkes estimate   =     -73.77491749 Ry
     estimated scf accuracy    <       0.00180029 Ry

     iteration #  4     ecut=    45.00 Ry     beta= 0.40
     Davidson diagonalization with overlap
     ethr =  1.13E-05,  avg # of iterations =  3.4

     total cpu time spent up to now is       11.8 secs

     total energy              =     -73.77473413 Ry
     Harris-Foulkes estimate   =     -73.77501863 Ry
     estimated scf accuracy    <       0.00045433 Ry

     iteration #  5     ecut=    45.00 Ry     beta= 0.40
     Davidson diagonalization with overlap
     ethr =  2.84E-06,  avg # of iterations =  2.9

     total cpu time spent up to now is       14.4 secs

     total energy              =     -73.77482003 Ry
     Harris-Foulkes estimate   =     -73.77482006 Ry
     estimated scf accuracy    <       0.00000235 Ry

     iteration #  6     ecut=    45.00 Ry     beta= 0.40
     Davidson diagonalization with overlap
     ethr =  1.47E-08,  avg # of iterations =  2.1

     total cpu time spent up to now is       16.9 secs

     total energy              =     -73.77482092 Ry
     Harris-Foulkes estimate   =     -73.77482080 Ry
     estimated scf accuracy    <       0.00000018 Ry

     iteration #  7     ecut=    45.00 Ry     beta= 0.40
     Davidson diagonalization with overlap
     ethr =  1.14E-09,  avg # of iterations =  2.0

     total cpu time spent up to now is       19.4 secs

     total energy              =     -73.77482097 Ry
     Harris-Foulkes estimate   =     -73.77482096 Ry
     estimated scf accuracy    <          4.8E-09 Ry

     iteration #  8     ecut=    45.00 Ry     beta= 0.40
     Davidson diagonalization with overlap
     ethr =  2.98E-11,  avg # of iterations =  2.1

     total cpu time spent up to now is       21.7 secs

     End of self-consistent calculation

          k = 0.0000 0.0000 0.0000 (  1535 PWs)   bands (ev):

   -15.0705 -15.0406  -3.3610  -2.9343   1.4013   1.4013   1.4021   1.4021
     7.4903  10.6310  12.7697  12.7698

     occupation numbers 
     1.0000   1.0000   1.0000   1.0000   1.0000   1.0000   1.0000   1.0000
     0.0000   0.0000   0.0000   0.0000

          k = 0.0000 0.0000-0.0947 (  1535 PWs)   bands (ev):

   -15.0630 -15.0481  -3.2604  -3.0475   1.4015   1.4015   1.4019   1.4019
     8.0451   9.4734  12.7708  12.7718

     occupation numbers 
     1.0000   1.0000   1.0000   1.0000   1.0000   1.0000   1.0000   1.0000
     0.0000   0.0000   0.0000   0.0000

          k =-0.1000 0.0577 0.0000 (  1557 PWs)   bands (ev):

   -14.8344 -14.8052  -3.0770  -2.6558   0.4835   0.4858   0.9285   0.9300
     7.7993  10.9185  12.8193  12.8537

     occupation numbers 
     1.0000   1.0000   1.0000   1.0000   1.0000   1.0000   1.0000   1.0000
     0.0000   0.0000   0.0000   0.0000

          k =-0.1000 0.0577-0.0947 (  1553 PWs)   bands (ev):

   -14.8272 -14.8126  -2.9776  -2.7674   0.4841   0.4852   0.9289   0.9297
     8.3501   9.7683  12.8413  12.8510

     occupation numbers 
     1.0000   1.0000   1.0000   1.0000   1.0000   1.0000   1.0000   1.0000
     0.0000   0.0000   0.0000   0.0000

          k =-0.2000 0.1155 0.0000 (  1563 PWs)   bands (ev):

   -14.1302 -14.1028  -2.2357  -1.8322  -1.6965  -1.6912  -0.0858  -0.0835
     8.7262  11.7381  12.6427  12.7011

     occupation numbers 
     1.0000   1.0000   1.0000   1.0000   1.0000   1.0000   1.0000   1.0000
     0.0000   0.0000   0.0000   0.0000

          k =-0.2000 0.1155-0.0947 (  1561 PWs)   bands (ev):

   -14.1234 -14.1097  -2.1403  -1.9389  -1.6952  -1.6925  -0.0853  -0.0841
     9.2627  10.6383  12.6779  12.6959

     occupation numbers 
     1.0000   1.0000   1.0000   1.0000   1.0000   1.0000   1.0000   1.0000
     0.0000   0.0000   0.0000   0.0000

          k =-0.3000 0.1732 0.0000 (  1565 PWs)   bands (ev):

   -12.9709 -12.9462  -4.3106  -4.3015  -1.0733  -1.0706  -0.8812  -0.5124
    10.2212  10.2625  10.3491  12.2543

     occupation numbers 
     1.0000   1.0000   1.0000   1.0000   1.0000   1.0000   1.0000   1.0000
     0.0000   0.0000   0.0000   0.0000

          k =-0.3000 0.1732-0.0947 (  1568 PWs)   bands (ev):

   -12.9648 -12.9524  -4.3084  -4.3038  -1.0727  -1.0713  -0.7935  -0.6094
    10.2141  10.2888  10.8387  12.0687

     occupation numbers 
     1.0000   1.0000   1.0000   1.0000   1.0000   1.0000   1.0000   1.0000
     0.0000   0.0000   0.0000   0.0000

          k =-0.4000 0.2309 0.0000 (  1574 PWs)   bands (ev):

   -11.3906 -11.3695  -6.8847  -6.8718  -1.7414  -1.7384   0.8329   1.1284
     7.5193   7.7179  11.9071  11.9440

     occupation numbers 
     1.0000   1.0000   1.0000   1.0000   1.0000   1.0000   1.0000   1.0000
     0.0000   0.0000   0.0000   0.0000

          k =-0.4000 0.2309-0.0947 (  1569 PWs)   bands (ev):

   -11.3853 -11.3748  -6.8815  -6.8750  -1.7407  -1.7391   0.9042   1.0518
     7.5627   7.6621  11.9259  11.9432

     occupation numbers 
     1.0000   1.0000   1.0000   1.0000   1.0000   1.0000   1.0000   1.0000
     0.0000   0.0000   0.0000   0.0000

          k = 0.5000-0.2887-0.0000 (  1584 PWs)   bands (ev):

    -9.8305  -9.8210  -8.7844  -8.7767  -1.9742  -1.9711   2.0324   2.1583
     6.0497   6.2352  11.8004  11.8447

     occupation numbers 
     1.0000   1.0000   1.0000   1.0000   1.0000   1.0000   1.0000   1.0000
     0.0000   0.0000   0.0000   0.0000

          k = 0.5000-0.2887-0.0947 (  1584 PWs)   bands (ev):

    -9.8281  -9.8234  -8.7825  -8.7787  -1.9735  -1.9719   2.0651   2.1281
     6.0870   6.1797  11.8114  11.8336

     occupation numbers 
     1.0000   1.0000   1.0000   1.0000   1.0000   1.0000   1.0000   1.0000
     0.0000   0.0000   0.0000   0.0000

          k =-0.2000 0.0000 0.0000 (  1559 PWs)   bands (ev):

   -14.3643 -14.3363  -2.5140  -2.1044  -0.8656  -0.8634  -0.0165  -0.0151
     8.4182  11.4846  13.2587  13.3278

     occupation numbers 
     1.0000   1.0000   1.0000   1.0000   1.0000   1.0000   1.0000   1.0000
     0.0000   0.0000   0.0000   0.0000

          k =-0.2000 0.0000-0.0947 (  1563 PWs)   bands (ev):

   -14.3574 -14.3433  -2.4172  -2.2128  -0.8651  -0.8640  -0.0162  -0.0155
     8.9605  10.3556  13.3028  13.3221

     occupation numbers 
     1.0000   1.0000   1.0000   1.0000   1.0000   1.0000   1.0000   1.0000
     0.0000   0.0000   0.0000   0.0000

          k =-0.3000 0.0577 0.0000 (  1559 PWs)   bands (ev):

   -13.4325 -13.4067  -3.0266  -3.0205  -1.4121  -1.2597  -1.2564  -1.0279
     9.6534  11.3479  11.4141  12.6182

     occupation numbers 
     1.0000   1.0000   1.0000   1.0000   1.0000   1.0000   1.0000   1.0000
     0.0000   0.0000   0.0000   0.0000

          k =-0.3000 0.0577-0.0947 (  1570 PWs)   bands (ev):

   -13.4261 -13.4132  -3.0251  -3.0220  -1.3210  -1.2589  -1.2572  -1.1292
    10.1698  11.2999  11.3865  11.6264

     occupation numbers 
     1.0000   1.0000   1.0000   1.0000   1.0000   1.0000   1.0000   1.0000
     0.0000   0.0000   0.0000   0.0000

          k =-0.4000 0.1155 0.0000 (  1576 PWs)   bands (ev):

   -12.0607 -12.0380  -5.5351  -5.5247  -2.1766  -2.1722   0.1516   0.4874
     8.7044   8.8508  11.4876  13.0741

     occupation numbers 
     1.0000   1.0000   1.0000   1.0000   1.0000   1.0000   1.0000   1.0000
     0.0000   0.0000   0.0000   0.0000

          k =-0.4000 0.1155-0.0947 (  1578 PWs)   bands (ev):

   -12.0550 -12.0437  -5.5325  -5.5273  -2.1755  -2.1733   0.2318   0.3996
     8.7364   8.8099  11.9799  13.0111

     occupation numbers 
     1.0000   1.0000   1.0000   1.0000   1.0000   1.0000   1.0000   1.0000
     0.0000   0.0000   0.0000   0.0000

          k =-0.5000 0.1732 0.0000 (  1583 PWs)   bands (ev):

   -10.3274 -10.3094  -7.9115  -7.8979  -2.6530  -2.6483   1.8461   2.0606
     6.4303   6.6086  12.8363  12.8907

     occupation numbers 
     1.0000   1.0000   1.0000   1.0000   1.0000   1.0000   1.0000   1.0000
     0.0000   0.0000   0.0000   0.0000

          k =-0.5000 0.1732-0.0947 (  1584 PWs)   bands (ev):

   -10.3229 -10.3139  -7.9081  -7.9013  -2.6518  -2.6494   1.8991   2.0064
     6.4688   6.5581  12.8506  12.8778

     occupation numbers 
     1.0000   1.0000   1.0000   1.0000   1.0000   1.0000   1.0000   1.0000
     0.0000   0.0000   0.0000   0.0000

          k =-0.4000 0.0000 0.0000 (  1581 PWs)   bands (ev):

   -12.2875 -12.2644  -4.4983  -4.4937  -3.0165  -3.0130  -0.0856   0.2624
     9.3036   9.3865  11.1888  13.7710

     occupation numbers 
     1.0000   1.0000   1.0000   1.0000   1.0000   1.0000   1.0000   1.0000
     0.0000   0.0000   0.0000   0.0000

          k =-0.4000 0.0000-0.0947 (  1575 PWs)   bands (ev):

   -12.2818 -12.2702  -4.4971  -4.4948  -3.0156  -3.0139  -0.0025   0.1712
     9.3242   9.3656  11.6695  12.8739

     occupation numbers 
     1.0000   1.0000   1.0000   1.0000   1.0000   1.0000   1.0000   1.0000
     0.0000   0.0000   0.0000   0.0000

          k =-0.5000 0.0577 0.0000 (  1591 PWs)   bands (ev):

   -10.7369 -10.7173  -6.4905  -6.4803  -4.0902  -4.0836   1.6138   1.8947
     7.0937   7.2124  13.2942  15.3130

     occupation numbers 
     1.0000   1.0000   1.0000   1.0000   1.0000   1.0000   1.0000   1.0000
     0.0000   0.0000   0.0000   0.0000

          k =-0.5000 0.0577-0.0947 (  1585 PWs)   bands (ev):

   -10.7320 -10.7222  -6.4879  -6.4829  -4.0886  -4.0852   1.6816   1.8220
     7.1223   7.1817  13.6660  14.4980

     occupation numbers 
     1.0000   1.0000   1.0000   1.0000   1.0000   1.0000   1.0000   1.0000
     0.0000   0.0000   0.0000   0.0000

          k =-0.6000 0.1155 0.0000 (  1587 PWs)   bands (ev):

    -9.2241  -9.2152  -8.2307  -8.2245  -4.3956  -4.3880   2.8923   3.0140
     5.7250   5.7920  15.1719  15.3301

     occupation numbers 
     1.0000   1.0000   1.0000   1.0000   1.0000   1.0000   1.0041   1.0166
     0.0000   0.0000   0.0000   0.0000

          k =-0.6000 0.1155-0.0947 (  1591 PWs)   bands (ev):

    -9.2218  -9.2174  -8.2291  -8.2261  -4.3937  -4.3899   2.9241   2.9851
     5.7368   5.7705  15.1849  15.2490

     occupation numbers 
     1.0000   1.0000   1.0000   1.0000   1.0000   1.0000   1.0061   1.0123
     0.0000   0.0000   0.0000   0.0000

          k =-0.6000 0.0000 0.0000 (  1599 PWs)   bands (ev):

    -9.1088  -9.0937  -7.4190  -7.4121  -5.7182  -5.7140   3.3338   3.5307
     5.4111   5.5201  15.0803  15.5022

     occupation numbers 
     1.0000   1.0000   1.0000   1.0000   1.0000   1.0000   1.0790   0.8542
     0.0000   0.0000   0.0000   0.0000

          k =-0.6000 0.0000-0.0947 (  1597 PWs)   bands (ev):

    -9.1050  -9.0975  -7.4172  -7.4138  -5.7172  -5.7151   3.3823   3.4808
     5.4376   5.4921  14.9554  14.9961

     occupation numbers 
     1.0000   1.0000   1.0000   1.0000   1.0000   1.0000   1.0580   0.9468
     0.0000   0.0000   0.0000   0.0000

     the Fermi energy is     3.7202 ev

!    total energy              =     -73.77482098 Ry
     Harris-Foulkes estimate   =     -73.77482098 Ry
     estimated scf accuracy    <          3.7E-10 Ry

     total all-electron energy =      -304.831212 Ry

     The total energy is the sum of the following terms:

     one-electron contribution =     -33.70336233 Ry
     hartree contribution      =      23.72154102 Ry
     xc contribution           =     -18.54132537 Ry
     ewald contribution        =     -20.58522414 Ry
     one-center paw contrib.   =     -24.66701934 Ry
      -> PAW hartree energy AE =      38.00493381 Ry
      -> PAW hartree energy PS =     -37.97047988 Ry
      -> PAW xc energy AE      =     -42.70479772 Ry
      -> PAW xc energy PS      =      18.00332445 Ry
      -> total E_H with PAW    =      23.75599495 Ry
      -> total E_XC with PAW   =     -43.24279864 Ry
     smearing contrib. (-TS)   =       0.00056918 Ry

     convergence has been achieved in   8 iterations

     Forces acting on atoms (cartesian axes, Ry/au):

     atom    1 type  1   force =    -0.00000000   -0.00000000   -0.00000000
     atom    2 type  1   force =    -0.00000000    0.00000000    0.00000000
     atom    3 type  1   force =    -0.00000000   -0.00000000    0.00000000
     atom    4 type  1   force =     0.00000000    0.00000000    0.00000000
     The non-local contrib.  to forces
     atom    1 type  1   force =    -0.00000000    0.00000000    0.00000000
     atom    2 type  1   force =    -0.00000000    0.00000000    0.00000000
     atom    3 type  1   force =     0.00000000    0.00000000    0.00000000
     atom    4 type  1   force =     0.00000000    0.00000000    0.00000000
     The ionic contribution  to forces
     atom    1 type  1   force =     0.00000000    0.00000000   -0.00000000
     atom    2 type  1   force =     0.00000000   -0.00000000    0.00000000
     atom    3 type  1   force =     0.00000000   -0.00000000    0.00000000
     atom    4 type  1   force =    -0.00000000    0.00000000    0.00000000
     The local contribution  to forces
     atom    1 type  1   force =     0.00000000   -0.00000000    0.00000000
     atom    2 type  1   force =     0.00000000    0.00000000   -0.00000000
     atom    3 type  1   force =    -0.00000000   -0.00000000    0.00000000
     atom    4 type  1   force =    -0.00000000    0.00000000   -0.00000000
     The core correction contribution to forces
     atom    1 type  1   force =    -0.00000000   -0.00000000    0.00000000
     atom    2 type  1   force =    -0.00000000    0.00000000   -0.00000000
     atom    3 type  1   force =     0.00000000    0.00000000    0.00000000
     atom    4 type  1   force =     0.00000000   -0.00000000    0.00000000
     The Hubbard contrib.    to forces
     atom    1 type  1   force =     0.00000000    0.00000000    0.00000000
     atom    2 type  1   force =     0.00000000    0.00000000    0.00000000
     atom    3 type  1   force =     0.00000000    0.00000000    0.00000000
     atom    4 type  1   force =     0.00000000    0.00000000    0.00000000
     The SCF correction term to forces
     atom    1 type  1   force =    -0.00000000    0.00000000   -0.00000000
     atom    2 type  1   force =    -0.00000000   -0.00000000    0.00000000
     atom    3 type  1   force =     0.00000000   -0.00000000   -0.00000000
     atom    4 type  1   force =     0.00000000    0.00000000    0.00000000

     Total force =     0.000000     Total SCF correction =     0.000000


     Computing stress (Cartesian axis) and pressure

          total   stress  (Ry/bohr**3)                   (kbar)     P=   -2.77
  -0.00002454   0.00000000  -0.00000000         -3.61      0.00     -0.00
   0.00000000  -0.00002454   0.00000000          0.00     -3.61      0.00
   0.00000000  -0.00000000  -0.00000735          0.00     -0.00     -1.08

     kinetic stress (kbar)   8913.01      0.00      0.00
                                0.00   8913.01      0.00
                                0.00      0.00  10121.33

     local   stress (kbar) -28351.29     -0.00      0.00
                               -0.00 -28351.29     -0.00
                                0.00     -0.00  27702.82

     nonloc. stress (kbar)   2245.28      0.00     -0.00
                                0.00   2245.28     -0.00
                               -0.00     -0.00   2047.59

     hartree stress (kbar)  10496.73      0.00      0.00
                                0.00  10496.73     -0.00
                                0.00     -0.00  -9703.87

     exc-cor stress (kbar)   -159.29     -0.00      0.00
                               -0.00   -159.29      0.00
                                0.00      0.00   -260.29

     corecor stress (kbar)  -2148.28     -0.00     -0.00
                               -0.00  -2148.28      0.00
                               -0.00      0.00  -2111.26

     ewald   stress (kbar)   9000.22     -0.00      0.00
                               -0.00   9000.22      0.00
                                0.00      0.00 -27797.40

     hubbard stress (kbar)      0.00      0.00      0.00
                                0.00      0.00      0.00
                                0.00      0.00      0.00

     london  stress (kbar)      0.00      0.00      0.00
                                0.00      0.00      0.00
                                0.00      0.00      0.00

     DFT-D3  stress (kbar)      0.00      0.00      0.00
                                0.00      0.00      0.00
                                0.00      0.00      0.00

     XDM     stress (kbar)      0.00      0.00      0.00
                                0.00      0.00      0.00
                                0.00      0.00      0.00

     dft-nl  stress (kbar)      0.00      0.00      0.00
                                0.00      0.00      0.00
                                0.00      0.00      0.00

     TS-vdW  stress (kbar)      0.00      0.00      0.00
                                0.00      0.00      0.00
                                0.00      0.00      0.00

     3D-RISM stress (kbar)      0.00      0.00      0.00
                                0.00      0.00      0.00
                                0.00      0.00      0.00



     Writing output data file aiida.save\

     init_run     :      2.95s CPU      1.37s WALL (       1 calls)
     electrons    :     50.53s CPU     19.38s WALL (       1 calls)
     forces       :      0.52s CPU      0.17s WALL (       1 calls)
     stress       :      3.12s CPU      1.91s WALL (       1 calls)

     Called by init_run:
     wfcinit      :      2.19s CPU      0.74s WALL (       1 calls)
     wfcinit:atom :      0.02s CPU      0.01s WALL (      28 calls)
     wfcinit:wfcr :      1.88s CPU      0.65s WALL (      28 calls)
     potinit      :      0.31s CPU      0.13s WALL (       1 calls)
     hinit0       :      0.38s CPU      0.39s WALL (       1 calls)

     Called by electrons:
     c_bands      :     37.39s CPU     14.02s WALL (       8 calls)
     sum_band     :     10.91s CPU      4.13s WALL (       8 calls)
     v_of_rho     :      0.34s CPU      0.15s WALL (       9 calls)
     v_h          :      0.00s CPU      0.01s WALL (       9 calls)
     v_xc         :      0.44s CPU      0.17s WALL (      11 calls)
     newd         :      0.56s CPU      0.28s WALL (       9 calls)
     PAW_pot      :      1.53s CPU      0.86s WALL (       9 calls)
     mix_rho      :      0.03s CPU      0.02s WALL (       8 calls)

     Called by c_bands:
     init_us_2    :      0.80s CPU      0.24s WALL (     532 calls)
     cegterg      :     36.33s CPU     13.69s WALL (     224 calls)

     Called by sum_band:
     sum_band:bec :      1.16s CPU      0.34s WALL (     224 calls)
     addusdens    :      0.73s CPU      0.38s WALL (       8 calls)

     Called by *egterg:
     h_psi        :     33.34s CPU     12.65s WALL (     827 calls)
     s_psi        :      0.31s CPU      0.10s WALL (     827 calls)
     g_psi        :      0.38s CPU      0.19s WALL (     575 calls)
     cdiaghg      :      0.44s CPU      0.19s WALL (     799 calls)
     cegterg:over :      0.47s CPU      0.10s WALL (     575 calls)
     cegterg:upda :      0.88s CPU      0.32s WALL (     575 calls)
     cegterg:last :      0.17s CPU      0.05s WALL (     224 calls)

     Called by h_psi:
     h_psi:pot    :     32.56s CPU     12.31s WALL (     827 calls)
     h_psi:calbec :      0.64s CPU      0.13s WALL (     827 calls)
     vloc_psi     :     31.41s CPU     12.03s WALL (     827 calls)
     add_vuspsi   :      0.52s CPU      0.14s WALL (     827 calls)

     General routines
     calbec       :      0.89s CPU      0.20s WALL (    1191 calls)
     fft          :      0.08s CPU      0.04s WALL (     140 calls)
     ffts         :      0.00s CPU      0.00s WALL (      17 calls)
     fftw         :      4.77s CPU      1.53s WALL (   17936 calls)
     interpolate  :      0.00s CPU      0.01s WALL (       9 calls)

     Parallel routines

     PAW routines
     PAW_pot      :      1.53s CPU      0.86s WALL (       9 calls)
     PAW_symme    :      0.00s CPU      0.00s WALL (      17 calls)

     PWSCF        :     58.22s CPU     24.17s WALL


   This run was terminated on:   0:28:13  19Aug2023            

=------------------------------------------------------------------------------=
   JOB DONE.
=------------------------------------------------------------------------------=
